# vtk DataFile Version 2.0
Generated by inSilico's base::io::vtk::LegacyWriter
ASCII
DATASET UNSTRUCTURED_GRID
POINTS 441 float
0 0 0 
0.05 0 0 
0.1 0 0 
0.15 0 0 
0.2 0 0 
0.25 0 0 
0.3 0 0 
0.35 0 0 
0.4 0 0 
0.45 0 0 
0.5 0 0 
0.55 0 0 
0.6 0 0 
0.65 0 0 
0.7 0 0 
0.75 0 0 
0.8 0 0 
0.85 0 0 
0.9 0 0 
0.95 0 0 
1 0 0 
0 0.05 0 
0.05 0.05 0 
0.1 0.05 0 
0.15 0.05 0 
0.2 0.05 0 
0.25 0.05 0 
0.3 0.05 0 
0.35 0.05 0 
0.4 0.05 0 
0.45 0.05 0 
0.5 0.05 0 
0.55 0.05 0 
0.6 0.05 0 
0.65 0.05 0 
0.7 0.05 0 
0.75 0.05 0 
0.8 0.05 0 
0.85 0.05 0 
0.9 0.05 0 
0.95 0.05 0 
1 0.05 0 
0 0.1 0 
0.05 0.1 0 
0.1 0.1 0 
0.15 0.1 0 
0.2 0.1 0 
0.25 0.1 0 
0.3 0.1 0 
0.35 0.1 0 
0.4 0.1 0 
0.45 0.1 0 
0.5 0.1 0 
0.55 0.1 0 
0.6 0.1 0 
0.65 0.1 0 
0.7 0.1 0 
0.75 0.1 0 
0.8 0.1 0 
0.85 0.1 0 
0.9 0.1 0 
0.95 0.1 0 
1 0.1 0 
0 0.15 0 
0.05 0.15 0 
0.1 0.15 0 
0.15 0.15 0 
0.2 0.15 0 
0.25 0.15 0 
0.3 0.15 0 
0.35 0.15 0 
0.4 0.15 0 
0.45 0.15 0 
0.5 0.15 0 
0.55 0.15 0 
0.6 0.15 0 
0.65 0.15 0 
0.7 0.15 0 
0.75 0.15 0 
0.8 0.15 0 
0.85 0.15 0 
0.9 0.15 0 
0.95 0.15 0 
1 0.15 0 
0 0.2 0 
0.05 0.2 0 
0.1 0.2 0 
0.15 0.2 0 
0.2 0.2 0 
0.25 0.2 0 
0.3 0.2 0 
0.35 0.2 0 
0.4 0.2 0 
0.45 0.2 0 
0.5 0.2 0 
0.55 0.2 0 
0.6 0.2 0 
0.65 0.2 0 
0.7 0.2 0 
0.75 0.2 0 
0.8 0.2 0 
0.85 0.2 0 
0.9 0.2 0 
0.95 0.2 0 
1 0.2 0 
0 0.25 0 
0.05 0.25 0 
0.1 0.25 0 
0.15 0.25 0 
0.2 0.25 0 
0.25 0.25 0 
0.3 0.25 0 
0.35 0.25 0 
0.4 0.25 0 
0.45 0.25 0 
0.5 0.25 0 
0.55 0.25 0 
0.6 0.25 0 
0.65 0.25 0 
0.7 0.25 0 
0.75 0.25 0 
0.8 0.25 0 
0.85 0.25 0 
0.9 0.25 0 
0.95 0.25 0 
1 0.25 0 
0 0.3 0 
0.05 0.3 0 
0.1 0.3 0 
0.15 0.3 0 
0.2 0.3 0 
0.25 0.3 0 
0.3 0.3 0 
0.35 0.3 0 
0.4 0.3 0 
0.45 0.3 0 
0.5 0.3 0 
0.55 0.3 0 
0.6 0.3 0 
0.65 0.3 0 
0.7 0.3 0 
0.75 0.3 0 
0.8 0.3 0 
0.85 0.3 0 
0.9 0.3 0 
0.95 0.3 0 
1 0.3 0 
0 0.35 0 
0.05 0.35 0 
0.1 0.35 0 
0.15 0.35 0 
0.2 0.35 0 
0.25 0.35 0 
0.3 0.35 0 
0.35 0.35 0 
0.4 0.35 0 
0.45 0.35 0 
0.5 0.35 0 
0.55 0.35 0 
0.6 0.35 0 
0.65 0.35 0 
0.7 0.35 0 
0.75 0.35 0 
0.8 0.35 0 
0.85 0.35 0 
0.9 0.35 0 
0.95 0.35 0 
1 0.35 0 
0 0.4 0 
0.05 0.4 0 
0.1 0.4 0 
0.15 0.4 0 
0.2 0.4 0 
0.25 0.4 0 
0.3 0.4 0 
0.35 0.4 0 
0.4 0.4 0 
0.45 0.4 0 
0.5 0.4 0 
0.55 0.4 0 
0.6 0.4 0 
0.65 0.4 0 
0.7 0.4 0 
0.75 0.4 0 
0.8 0.4 0 
0.85 0.4 0 
0.9 0.4 0 
0.95 0.4 0 
1 0.4 0 
0 0.45 0 
0.05 0.45 0 
0.1 0.45 0 
0.15 0.45 0 
0.2 0.45 0 
0.25 0.45 0 
0.3 0.45 0 
0.35 0.45 0 
0.4 0.45 0 
0.45 0.45 0 
0.5 0.45 0 
0.55 0.45 0 
0.6 0.45 0 
0.65 0.45 0 
0.7 0.45 0 
0.75 0.45 0 
0.8 0.45 0 
0.85 0.45 0 
0.9 0.45 0 
0.95 0.45 0 
1 0.45 0 
0 0.5 0 
0.05 0.5 0 
0.1 0.5 0 
0.15 0.5 0 
0.2 0.5 0 
0.25 0.5 0 
0.3 0.5 0 
0.35 0.5 0 
0.4 0.5 0 
0.45 0.5 0 
0.5 0.5 0 
0.55 0.5 0 
0.6 0.5 0 
0.65 0.5 0 
0.7 0.5 0 
0.75 0.5 0 
0.8 0.5 0 
0.85 0.5 0 
0.9 0.5 0 
0.95 0.5 0 
1 0.5 0 
0 0.55 0 
0.05 0.55 0 
0.1 0.55 0 
0.15 0.55 0 
0.2 0.55 0 
0.25 0.55 0 
0.3 0.55 0 
0.35 0.55 0 
0.4 0.55 0 
0.45 0.55 0 
0.5 0.55 0 
0.55 0.55 0 
0.6 0.55 0 
0.65 0.55 0 
0.7 0.55 0 
0.75 0.55 0 
0.8 0.55 0 
0.85 0.55 0 
0.9 0.55 0 
0.95 0.55 0 
1 0.55 0 
0 0.6 0 
0.05 0.6 0 
0.1 0.6 0 
0.15 0.6 0 
0.2 0.6 0 
0.25 0.6 0 
0.3 0.6 0 
0.35 0.6 0 
0.4 0.6 0 
0.45 0.6 0 
0.5 0.6 0 
0.55 0.6 0 
0.6 0.6 0 
0.65 0.6 0 
0.7 0.6 0 
0.75 0.6 0 
0.8 0.6 0 
0.85 0.6 0 
0.9 0.6 0 
0.95 0.6 0 
1 0.6 0 
0 0.65 0 
0.05 0.65 0 
0.1 0.65 0 
0.15 0.65 0 
0.2 0.65 0 
0.25 0.65 0 
0.3 0.65 0 
0.35 0.65 0 
0.4 0.65 0 
0.45 0.65 0 
0.5 0.65 0 
0.55 0.65 0 
0.6 0.65 0 
0.65 0.65 0 
0.7 0.65 0 
0.75 0.65 0 
0.8 0.65 0 
0.85 0.65 0 
0.9 0.65 0 
0.95 0.65 0 
1 0.65 0 
0 0.7 0 
0.05 0.7 0 
0.1 0.7 0 
0.15 0.7 0 
0.2 0.7 0 
0.25 0.7 0 
0.3 0.7 0 
0.35 0.7 0 
0.4 0.7 0 
0.45 0.7 0 
0.5 0.7 0 
0.55 0.7 0 
0.6 0.7 0 
0.65 0.7 0 
0.7 0.7 0 
0.75 0.7 0 
0.8 0.7 0 
0.85 0.7 0 
0.9 0.7 0 
0.95 0.7 0 
1 0.7 0 
0 0.75 0 
0.05 0.75 0 
0.1 0.75 0 
0.15 0.75 0 
0.2 0.75 0 
0.25 0.75 0 
0.3 0.75 0 
0.35 0.75 0 
0.4 0.75 0 
0.45 0.75 0 
0.5 0.75 0 
0.55 0.75 0 
0.6 0.75 0 
0.65 0.75 0 
0.7 0.75 0 
0.75 0.75 0 
0.8 0.75 0 
0.85 0.75 0 
0.9 0.75 0 
0.95 0.75 0 
1 0.75 0 
0 0.8 0 
0.05 0.8 0 
0.1 0.8 0 
0.15 0.8 0 
0.2 0.8 0 
0.25 0.8 0 
0.3 0.8 0 
0.35 0.8 0 
0.4 0.8 0 
0.45 0.8 0 
0.5 0.8 0 
0.55 0.8 0 
0.6 0.8 0 
0.65 0.8 0 
0.7 0.8 0 
0.75 0.8 0 
0.8 0.8 0 
0.85 0.8 0 
0.9 0.8 0 
0.95 0.8 0 
1 0.8 0 
0 0.85 0 
0.05 0.85 0 
0.1 0.85 0 
0.15 0.85 0 
0.2 0.85 0 
0.25 0.85 0 
0.3 0.85 0 
0.35 0.85 0 
0.4 0.85 0 
0.45 0.85 0 
0.5 0.85 0 
0.55 0.85 0 
0.6 0.85 0 
0.65 0.85 0 
0.7 0.85 0 
0.75 0.85 0 
0.8 0.85 0 
0.85 0.85 0 
0.9 0.85 0 
0.95 0.85 0 
1 0.85 0 
0 0.9 0 
0.05 0.9 0 
0.1 0.9 0 
0.15 0.9 0 
0.2 0.9 0 
0.25 0.9 0 
0.3 0.9 0 
0.35 0.9 0 
0.4 0.9 0 
0.45 0.9 0 
0.5 0.9 0 
0.55 0.9 0 
0.6 0.9 0 
0.65 0.9 0 
0.7 0.9 0 
0.75 0.9 0 
0.8 0.9 0 
0.85 0.9 0 
0.9 0.9 0 
0.95 0.9 0 
1 0.9 0 
0 0.95 0 
0.05 0.95 0 
0.1 0.95 0 
0.15 0.95 0 
0.2 0.95 0 
0.25 0.95 0 
0.3 0.95 0 
0.35 0.95 0 
0.4 0.95 0 
0.45 0.95 0 
0.5 0.95 0 
0.55 0.95 0 
0.6 0.95 0 
0.65 0.95 0 
0.7 0.95 0 
0.75 0.95 0 
0.8 0.95 0 
0.85 0.95 0 
0.9 0.95 0 
0.95 0.95 0 
1 0.95 0 
0 1 0 
0.05 1 0 
0.1 1 0 
0.15 1 0 
0.2 1 0 
0.25 1 0 
0.3 1 0 
0.35 1 0 
0.4 1 0 
0.45 1 0 
0.5 1 0 
0.55 1 0 
0.6 1 0 
0.65 1 0 
0.7 1 0 
0.75 1 0 
0.8 1 0 
0.85 1 0 
0.9 1 0 
0.95 1 0 
1 1 0 
CELLS 400 2000
4 0 1 22 21 
4 1 2 23 22 
4 2 3 24 23 
4 3 4 25 24 
4 4 5 26 25 
4 5 6 27 26 
4 6 7 28 27 
4 7 8 29 28 
4 8 9 30 29 
4 9 10 31 30 
4 10 11 32 31 
4 11 12 33 32 
4 12 13 34 33 
4 13 14 35 34 
4 14 15 36 35 
4 15 16 37 36 
4 16 17 38 37 
4 17 18 39 38 
4 18 19 40 39 
4 19 20 41 40 
4 21 22 43 42 
4 22 23 44 43 
4 23 24 45 44 
4 24 25 46 45 
4 25 26 47 46 
4 26 27 48 47 
4 27 28 49 48 
4 28 29 50 49 
4 29 30 51 50 
4 30 31 52 51 
4 31 32 53 52 
4 32 33 54 53 
4 33 34 55 54 
4 34 35 56 55 
4 35 36 57 56 
4 36 37 58 57 
4 37 38 59 58 
4 38 39 60 59 
4 39 40 61 60 
4 40 41 62 61 
4 42 43 64 63 
4 43 44 65 64 
4 44 45 66 65 
4 45 46 67 66 
4 46 47 68 67 
4 47 48 69 68 
4 48 49 70 69 
4 49 50 71 70 
4 50 51 72 71 
4 51 52 73 72 
4 52 53 74 73 
4 53 54 75 74 
4 54 55 76 75 
4 55 56 77 76 
4 56 57 78 77 
4 57 58 79 78 
4 58 59 80 79 
4 59 60 81 80 
4 60 61 82 81 
4 61 62 83 82 
4 63 64 85 84 
4 64 65 86 85 
4 65 66 87 86 
4 66 67 88 87 
4 67 68 89 88 
4 68 69 90 89 
4 69 70 91 90 
4 70 71 92 91 
4 71 72 93 92 
4 72 73 94 93 
4 73 74 95 94 
4 74 75 96 95 
4 75 76 97 96 
4 76 77 98 97 
4 77 78 99 98 
4 78 79 100 99 
4 79 80 101 100 
4 80 81 102 101 
4 81 82 103 102 
4 82 83 104 103 
4 84 85 106 105 
4 85 86 107 106 
4 86 87 108 107 
4 87 88 109 108 
4 88 89 110 109 
4 89 90 111 110 
4 90 91 112 111 
4 91 92 113 112 
4 92 93 114 113 
4 93 94 115 114 
4 94 95 116 115 
4 95 96 117 116 
4 96 97 118 117 
4 97 98 119 118 
4 98 99 120 119 
4 99 100 121 120 
4 100 101 122 121 
4 101 102 123 122 
4 102 103 124 123 
4 103 104 125 124 
4 105 106 127 126 
4 106 107 128 127 
4 107 108 129 128 
4 108 109 130 129 
4 109 110 131 130 
4 110 111 132 131 
4 111 112 133 132 
4 112 113 134 133 
4 113 114 135 134 
4 114 115 136 135 
4 115 116 137 136 
4 116 117 138 137 
4 117 118 139 138 
4 118 119 140 139 
4 119 120 141 140 
4 120 121 142 141 
4 121 122 143 142 
4 122 123 144 143 
4 123 124 145 144 
4 124 125 146 145 
4 126 127 148 147 
4 127 128 149 148 
4 128 129 150 149 
4 129 130 151 150 
4 130 131 152 151 
4 131 132 153 152 
4 132 133 154 153 
4 133 134 155 154 
4 134 135 156 155 
4 135 136 157 156 
4 136 137 158 157 
4 137 138 159 158 
4 138 139 160 159 
4 139 140 161 160 
4 140 141 162 161 
4 141 142 163 162 
4 142 143 164 163 
4 143 144 165 164 
4 144 145 166 165 
4 145 146 167 166 
4 147 148 169 168 
4 148 149 170 169 
4 149 150 171 170 
4 150 151 172 171 
4 151 152 173 172 
4 152 153 174 173 
4 153 154 175 174 
4 154 155 176 175 
4 155 156 177 176 
4 156 157 178 177 
4 157 158 179 178 
4 158 159 180 179 
4 159 160 181 180 
4 160 161 182 181 
4 161 162 183 182 
4 162 163 184 183 
4 163 164 185 184 
4 164 165 186 185 
4 165 166 187 186 
4 166 167 188 187 
4 168 169 190 189 
4 169 170 191 190 
4 170 171 192 191 
4 171 172 193 192 
4 172 173 194 193 
4 173 174 195 194 
4 174 175 196 195 
4 175 176 197 196 
4 176 177 198 197 
4 177 178 199 198 
4 178 179 200 199 
4 179 180 201 200 
4 180 181 202 201 
4 181 182 203 202 
4 182 183 204 203 
4 183 184 205 204 
4 184 185 206 205 
4 185 186 207 206 
4 186 187 208 207 
4 187 188 209 208 
4 189 190 211 210 
4 190 191 212 211 
4 191 192 213 212 
4 192 193 214 213 
4 193 194 215 214 
4 194 195 216 215 
4 195 196 217 216 
4 196 197 218 217 
4 197 198 219 218 
4 198 199 220 219 
4 199 200 221 220 
4 200 201 222 221 
4 201 202 223 222 
4 202 203 224 223 
4 203 204 225 224 
4 204 205 226 225 
4 205 206 227 226 
4 206 207 228 227 
4 207 208 229 228 
4 208 209 230 229 
4 210 211 232 231 
4 211 212 233 232 
4 212 213 234 233 
4 213 214 235 234 
4 214 215 236 235 
4 215 216 237 236 
4 216 217 238 237 
4 217 218 239 238 
4 218 219 240 239 
4 219 220 241 240 
4 220 221 242 241 
4 221 222 243 242 
4 222 223 244 243 
4 223 224 245 244 
4 224 225 246 245 
4 225 226 247 246 
4 226 227 248 247 
4 227 228 249 248 
4 228 229 250 249 
4 229 230 251 250 
4 231 232 253 252 
4 232 233 254 253 
4 233 234 255 254 
4 234 235 256 255 
4 235 236 257 256 
4 236 237 258 257 
4 237 238 259 258 
4 238 239 260 259 
4 239 240 261 260 
4 240 241 262 261 
4 241 242 263 262 
4 242 243 264 263 
4 243 244 265 264 
4 244 245 266 265 
4 245 246 267 266 
4 246 247 268 267 
4 247 248 269 268 
4 248 249 270 269 
4 249 250 271 270 
4 250 251 272 271 
4 252 253 274 273 
4 253 254 275 274 
4 254 255 276 275 
4 255 256 277 276 
4 256 257 278 277 
4 257 258 279 278 
4 258 259 280 279 
4 259 260 281 280 
4 260 261 282 281 
4 261 262 283 282 
4 262 263 284 283 
4 263 264 285 284 
4 264 265 286 285 
4 265 266 287 286 
4 266 267 288 287 
4 267 268 289 288 
4 268 269 290 289 
4 269 270 291 290 
4 270 271 292 291 
4 271 272 293 292 
4 273 274 295 294 
4 274 275 296 295 
4 275 276 297 296 
4 276 277 298 297 
4 277 278 299 298 
4 278 279 300 299 
4 279 280 301 300 
4 280 281 302 301 
4 281 282 303 302 
4 282 283 304 303 
4 283 284 305 304 
4 284 285 306 305 
4 285 286 307 306 
4 286 287 308 307 
4 287 288 309 308 
4 288 289 310 309 
4 289 290 311 310 
4 290 291 312 311 
4 291 292 313 312 
4 292 293 314 313 
4 294 295 316 315 
4 295 296 317 316 
4 296 297 318 317 
4 297 298 319 318 
4 298 299 320 319 
4 299 300 321 320 
4 300 301 322 321 
4 301 302 323 322 
4 302 303 324 323 
4 303 304 325 324 
4 304 305 326 325 
4 305 306 327 326 
4 306 307 328 327 
4 307 308 329 328 
4 308 309 330 329 
4 309 310 331 330 
4 310 311 332 331 
4 311 312 333 332 
4 312 313 334 333 
4 313 314 335 334 
4 315 316 337 336 
4 316 317 338 337 
4 317 318 339 338 
4 318 319 340 339 
4 319 320 341 340 
4 320 321 342 341 
4 321 322 343 342 
4 322 323 344 343 
4 323 324 345 344 
4 324 325 346 345 
4 325 326 347 346 
4 326 327 348 347 
4 327 328 349 348 
4 328 329 350 349 
4 329 330 351 350 
4 330 331 352 351 
4 331 332 353 352 
4 332 333 354 353 
4 333 334 355 354 
4 334 335 356 355 
4 336 337 358 357 
4 337 338 359 358 
4 338 339 360 359 
4 339 340 361 360 
4 340 341 362 361 
4 341 342 363 362 
4 342 343 364 363 
4 343 344 365 364 
4 344 345 366 365 
4 345 346 367 366 
4 346 347 368 367 
4 347 348 369 368 
4 348 349 370 369 
4 349 350 371 370 
4 350 351 372 371 
4 351 352 373 372 
4 352 353 374 373 
4 353 354 375 374 
4 354 355 376 375 
4 355 356 377 376 
4 357 358 379 378 
4 358 359 380 379 
4 359 360 381 380 
4 360 361 382 381 
4 361 362 383 382 
4 362 363 384 383 
4 363 364 385 384 
4 364 365 386 385 
4 365 366 387 386 
4 366 367 388 387 
4 367 368 389 388 
4 368 369 390 389 
4 369 370 391 390 
4 370 371 392 391 
4 371 372 393 392 
4 372 373 394 393 
4 373 374 395 394 
4 374 375 396 395 
4 375 376 397 396 
4 376 377 398 397 
4 378 379 400 399 
4 379 380 401 400 
4 380 381 402 401 
4 381 382 403 402 
4 382 383 404 403 
4 383 384 405 404 
4 384 385 406 405 
4 385 386 407 406 
4 386 387 408 407 
4 387 388 409 408 
4 388 389 410 409 
4 389 390 411 410 
4 390 391 412 411 
4 391 392 413 412 
4 392 393 414 413 
4 393 394 415 414 
4 394 395 416 415 
4 395 396 417 416 
4 396 397 418 417 
4 397 398 419 418 
4 399 400 421 420 
4 400 401 422 421 
4 401 402 423 422 
4 402 403 424 423 
4 403 404 425 424 
4 404 405 426 425 
4 405 406 427 426 
4 406 407 428 427 
4 407 408 429 428 
4 408 409 430 429 
4 409 410 431 430 
4 410 411 432 431 
4 411 412 433 432 
4 412 413 434 433 
4 413 414 435 434 
4 414 415 436 435 
4 415 416 437 436 
4 416 417 438 437 
4 417 418 439 438 
4 418 419 440 439 
CELL_TYPES 400
9
9
9
9
9
9
9
9
9
9
9
9
9
9
9
9
9
9
9
9
9
9
9
9
9
9
9
9
9
9
9
9
9
9
9
9
9
9
9
9
9
9
9
9
9
9
9
9
9
9
9
9
9
9
9
9
9
9
9
9
9
9
9
9
9
9
9
9
9
9
9
9
9
9
9
9
9
9
9
9
9
9
9
9
9
9
9
9
9
9
9
9
9
9
9
9
9
9
9
9
9
9
9
9
9
9
9
9
9
9
9
9
9
9
9
9
9
9
9
9
9
9
9
9
9
9
9
9
9
9
9
9
9
9
9
9
9
9
9
9
9
9
9
9
9
9
9
9
9
9
9
9
9
9
9
9
9
9
9
9
9
9
9
9
9
9
9
9
9
9
9
9
9
9
9
9
9
9
9
9
9
9
9
9
9
9
9
9
9
9
9
9
9
9
9
9
9
9
9
9
9
9
9
9
9
9
9
9
9
9
9
9
9
9
9
9
9
9
9
9
9
9
9
9
9
9
9
9
9
9
9
9
9
9
9
9
9
9
9
9
9
9
9
9
9
9
9
9
9
9
9
9
9
9
9
9
9
9
9
9
9
9
9
9
9
9
9
9
9
9
9
9
9
9
9
9
9
9
9
9
9
9
9
9
9
9
9
9
9
9
9
9
9
9
9
9
9
9
9
9
9
9
9
9
9
9
9
9
9
9
9
9
9
9
9
9
9
9
9
9
9
9
9
9
9
9
9
9
9
9
9
9
9
9
9
9
9
9
9
9
9
9
9
9
9
9
9
9
9
9
9
9
9
9
9
9
9
9
9
9
9
9
9
9
9
9
9
9
9
9
9
9
9
9
9
9
9
9
9
9
9
9
9
9
9
9
9
9
9
9
9
9
9
9
9
9
9
9
9
9
POINT_DATA 441
VECTORS disp float 
0 0 0 
0.00554545 0.00511743 0 
0.00956724 0.00810444 0 
0.0131876 0.0101924 0 
0.0166686 0.0117349 0 
0.0201069 0.0128963 0 
0.0235475 0.0137753 0 
0.0270127 0.0144396 0 
0.0305138 0.0149387 0 
0.0340554 0.0153103 0 
0.037638 0.0155838 0 
0.0412601 0.0157821 0 
0.0449186 0.0159235 0 
0.0486095 0.0160223 0 
0.0523288 0.0160896 0 
0.0560719 0.0161343 0 
0.0598347 0.016163 0 
0.0636128 0.0161806 0 
0.0674023 0.0161908 0 
0.0711993 0.016196 0 
0.075 0.0161975 0 
0 0 0 
0.00367975 0.00357217 0 
0.00783391 0.00651423 0 
0.0117684 0.00866001 0 
0.0155359 0.0102407 0 
0.0192118 0.0114191 0 
0.0228451 0.0123013 0 
0.0264656 0.0129605 0 
0.030091 0.0134498 0 
0.0337316 0.0138093 0 
0.0373926 0.0140699 0 
0.0410762 0.0142557 0 
0.0447824 0.0143853 0 
0.0485102 0.0144734 0 
0.0522575 0.0145315 0 
0.0560218 0.0145684 0 
0.0598004 0.0145907 0 
0.0635903 0.0146035 0 
0.0673888 0.0146102 0 
0.071193 0.0146134 0 
0.075 0.0146143 0 
0 0 0 
0.00325753 0.0027141 0 
0.00696405 0.00521123 0 
0.0108129 0.00721963 0 
0.0146443 0.00876047 0 
0.0184315 0.00992557 0 
0.0221838 0.0108002 0 
0.0259162 0.0114518 0 
0.0296411 0.0119326 0 
0.0333674 0.0122829 0 
0.037101 0.012534 0 
0.0408451 0.0127105 0 
0.0446014 0.0128314 0 
0.04837 0.0129117 0 
0.0521505 0.012963 0 
0.0559416 0.012994 0 
0.059742 0.0130117 0 
0.0635498 0.0130208 0 
0.0673634 0.013025 0 
0.0711807 0.0130266 0 
0.075 0.0130269 0 
0 0 0 
0.0031078 0.00214754 0 
0.0065608 0.00419591 0 
0.0102389 0.00595398 0 
0.0140133 0.00736919 0 
0.0178149 0.00846982 0 
0.0216179 0.00930831 0 
0.0254157 0.00993714 0 
0.0292096 0.0104017 0 
0.0330023 0.0107393 0 
0.0367967 0.01098 0 
0.040595 0.0111476 0 
0.0443984 0.0112611 0 
0.0482076 0.0113351 0 
0.0520227 0.0113812 0 
0.0558431 0.011408 0 
0.0596684 0.0114223 0 
0.0634977 0.0114289 0 
0.0673301 0.0114313 0 
0.0711645 0.0114319 0 
0.075 0.0114319 0 
0 0 0 
0.00303824 0.00171783 0 
0.00635544 0.00337701 0 
0.00989884 0.0048551 0 
0.0135874 0.00609161 0 
0.0173556 0.00708211 0 
0.0211634 0.00785193 0 
0.0249897 0.00843644 0 
0.0288246 0.00887121 0 
0.0326635 0.00918802 0 
0.0365049 0.00941376 0 
0.040348 0.00957044 0 
0.0441929 0.00967578 0 
0.0480394 0.00974378 0 
0.0518875 0.00978536 0 
0.0557371 0.00980893 0 
0.059588 0.00982085 0 
0.06344 0.00982581 0 
0.0672929 0.00982716 0 
0.0711463 0.00982712 0 
0.075 0.00982697 0 
0 0 0 
0.00300114 0.00136216 0 
0.00624083 0.00268409 0 
0.00969179 0.00388709 0 
0.0133035 0.00492119 0 
0.0170243 0.00577054 0 
0.020814 0.00644384 0 
0.0246449 0.00696245 0 
0.0284997 0.00735195 0 
0.0323678 0.00763746 0 
0.0362427 0.00784149 0 
0.0401208 0.00798316 0 
0.0439998 0.00807819 0 
0.0478785 0.00813923 0 
0.0517563 0.00817622 0 
0.0556328 0.00819684 0 
0.0595081 0.00820694 0 
0.0633822 0.00821083 0 
0.0672553 0.00821158 0 
0.0711278 0.00821126 0 
0.075 0.00821103 0 
0 0 0 
0.00297987 0.00105094 0 
0.00617277 0.00207288 0 
0.00956207 0.00301462 0 
0.0131144 0.00383911 0 
0.0167905 0.00452938 0 
0.0205546 0.00508587 0 
0.0243779 0.00552035 0 
0.0282392 0.00584998 0 
0.0321236 0.00609334 0 
0.036021 0.00626805 0 
0.0399247 0.00638968 0 
0.0438304 0.00647134 0 
0.0477354 0.00652373 0 
0.0516381 0.00655535 0 
0.0555379 0.00657286 0 
0.0594347 0.0065813 0 
0.0633287 0.00658441 0 
0.0672205 0.00658487 0 
0.0711107 0.00658448 0 
0.075 0.00658423 0 
0 0 0 
0.0029673 0.000767964 0 
0.00613119 0.00151541 0 
0.00947998 0.00220944 0 
0.0129897 0.00282442 0 
0.01663 0.00334635 0 
0.0203696 0.00377266 0 
0.024181 0.00410923 0 
0.0280417 0.00436688 0 
0.0319342 0.0045584 0 
0.0358457 0.00469658 0 
0.0397672 0.00479311 0 
0.0436924 0.00485804 0 
0.0476174 0.00489974 0 
0.0515398 0.00492491 0 
0.0554584 0.00493881 0 
0.0593729 0.00494548 0 
0.0632835 0.0049479 0 
0.0671909 0.00494822 0 
0.071096 0.00494787 0 
0.075 0.00494767 0 
0 0 0 
0.00295997 0.000503043 0 
0.00610622 0.00099287 0 
0.00942951 0.00144973 0 
0.012911 0.00185763 0 
0.0165257 0.00220696 0 
0.0202463 0.00249487 0 
0.0240467 0.00272405 0 
0.0279041 0.0029007 0 
0.0317999 0.00303273 0 
0.0357195 0.00312839 0 
0.0396524 0.00319542 0 
0.0435909 0.00324062 0 
0.0475299 0.00326969 0 
0.0514663 0.00328726 0 
0.0553986 0.00329696 0 
0.0593262 0.00330162 0 
0.0632492 0.00330331 0 
0.0671684 0.00330353 0 
0.0710849 0.00330329 0 
0.075 0.00330314 0 
0 0 0 
0.00295613 0.000248967 0 
0.00609284 0.000491445 0 
0.00940205 0.000718146 0 
0.0128675 0.000921394 0 
0.0164671 0.00109635 0 
0.0201758 0.00124132 0 
0.0239687 0.00135728 0 
0.0278231 0.00144705 0 
0.0317199 0.00151437 0 
0.0356437 0.00156329 0 
0.0395828 0.00159764 0 
0.0435289 0.00162084 0 
0.0474761 0.00163578 0 
0.051421 0.00164482 0 
0.0553616 0.00164982 0 
0.0592972 0.00165222 0 
0.0632279 0.0016531 0 
0.0671544 0.00165321 0 
0.071078 0.00165309 0 
0.075 0.00165302 0 
0 0 0 
0.00295494 1.27851e-17 0 
0.00608862 2.7514e-17 0 
0.00939332 4.77151e-17 0 
0.0128536 6.92297e-17 0 
0.0164482 9.62162e-17 0 
0.0201529 1.24756e-16 0 
0.0239431 1.51516e-16 0 
0.0277964 1.85446e-16 0 
0.0316933 2.23224e-16 0 
0.0356184 2.60898e-16 0 
0.0395595 2.81215e-16 0 
0.043508 3.06768e-16 0 
0.047458 3.30228e-16 0 
0.0514057 3.5551e-16 0 
0.0553491 3.77926e-16 0 
0.0592874 4.0392e-16 0 
0.0632206 4.1382e-16 0 
0.0671496 4.21614e-16 0 
0.0710756 4.28355e-16 0 
0.075 4.4455e-16 0 
0 0 0 
0.00295613 -0.000248967 0 
0.00609284 -0.000491445 0 
0.00940205 -0.000718146 0 
0.0128675 -0.000921394 0 
0.0164671 -0.00109635 0 
0.0201758 -0.00124132 0 
0.0239687 -0.00135728 0 
0.0278231 -0.00144705 0 
0.0317199 -0.00151437 0 
0.0356437 -0.00156329 0 
0.0395828 -0.00159764 0 
0.0435289 -0.00162084 0 
0.0474761 -0.00163578 0 
0.051421 -0.00164482 0 
0.0553616 -0.00164982 0 
0.0592972 -0.00165222 0 
0.0632279 -0.0016531 0 
0.0671544 -0.00165321 0 
0.071078 -0.00165309 0 
0.075 -0.00165302 0 
0 0 0 
0.00295997 -0.000503043 0 
0.00610622 -0.00099287 0 
0.00942951 -0.00144973 0 
0.012911 -0.00185763 0 
0.0165257 -0.00220696 0 
0.0202463 -0.00249487 0 
0.0240467 -0.00272405 0 
0.0279041 -0.0029007 0 
0.0317999 -0.00303273 0 
0.0357195 -0.00312839 0 
0.0396524 -0.00319542 0 
0.0435909 -0.00324062 0 
0.0475299 -0.00326969 0 
0.0514663 -0.00328726 0 
0.0553986 -0.00329696 0 
0.0593262 -0.00330162 0 
0.0632492 -0.00330331 0 
0.0671684 -0.00330353 0 
0.0710849 -0.00330329 0 
0.075 -0.00330314 0 
0 0 0 
0.0029673 -0.000767964 0 
0.00613119 -0.00151541 0 
0.00947998 -0.00220944 0 
0.0129897 -0.00282442 0 
0.01663 -0.00334635 0 
0.0203696 -0.00377266 0 
0.024181 -0.00410923 0 
0.0280417 -0.00436688 0 
0.0319342 -0.0045584 0 
0.0358457 -0.00469658 0 
0.0397672 -0.00479311 0 
0.0436924 -0.00485804 0 
0.0476174 -0.00489974 0 
0.0515398 -0.00492491 0 
0.0554584 -0.00493881 0 
0.0593729 -0.00494548 0 
0.0632835 -0.0049479 0 
0.0671909 -0.00494822 0 
0.071096 -0.00494787 0 
0.075 -0.00494767 0 
0 0 0 
0.00297987 -0.00105094 0 
0.00617277 -0.00207288 0 
0.00956207 -0.00301462 0 
0.0131144 -0.00383911 0 
0.0167905 -0.00452938 0 
0.0205546 -0.00508587 0 
0.0243779 -0.00552035 0 
0.0282392 -0.00584998 0 
0.0321236 -0.00609334 0 
0.036021 -0.00626805 0 
0.0399247 -0.00638968 0 
0.0438304 -0.00647134 0 
0.0477354 -0.00652373 0 
0.0516381 -0.00655535 0 
0.0555379 -0.00657286 0 
0.0594347 -0.0065813 0 
0.0633287 -0.00658441 0 
0.0672205 -0.00658487 0 
0.0711107 -0.00658448 0 
0.075 -0.00658423 0 
0 0 0 
0.00300114 -0.00136216 0 
0.00624083 -0.00268409 0 
0.00969179 -0.00388709 0 
0.0133035 -0.00492119 0 
0.0170243 -0.00577054 0 
0.020814 -0.00644384 0 
0.0246449 -0.00696245 0 
0.0284997 -0.00735195 0 
0.0323678 -0.00763746 0 
0.0362427 -0.00784149 0 
0.0401208 -0.00798316 0 
0.0439998 -0.00807819 0 
0.0478785 -0.00813923 0 
0.0517563 -0.00817622 0 
0.0556328 -0.00819684 0 
0.0595081 -0.00820694 0 
0.0633822 -0.00821083 0 
0.0672553 -0.00821158 0 
0.0711278 -0.00821126 0 
0.075 -0.00821103 0 
0 0 0 
0.00303824 -0.00171783 0 
0.00635544 -0.00337701 0 
0.00989884 -0.0048551 0 
0.0135874 -0.00609161 0 
0.0173556 -0.00708211 0 
0.0211634 -0.00785193 0 
0.0249897 -0.00843644 0 
0.0288246 -0.00887121 0 
0.0326635 -0.00918802 0 
0.0365049 -0.00941376 0 
0.040348 -0.00957044 0 
0.0441929 -0.00967578 0 
0.0480394 -0.00974378 0 
0.0518875 -0.00978536 0 
0.0557371 -0.00980893 0 
0.059588 -0.00982085 0 
0.06344 -0.00982581 0 
0.0672929 -0.00982716 0 
0.0711463 -0.00982712 0 
0.075 -0.00982697 0 
0 0 0 
0.0031078 -0.00214754 0 
0.0065608 -0.00419591 0 
0.0102389 -0.00595398 0 
0.0140133 -0.00736919 0 
0.0178149 -0.00846982 0 
0.0216179 -0.00930831 0 
0.0254157 -0.00993714 0 
0.0292096 -0.0104017 0 
0.0330023 -0.0107393 0 
0.0367967 -0.01098 0 
0.040595 -0.0111476 0 
0.0443984 -0.0112611 0 
0.0482076 -0.0113351 0 
0.0520227 -0.0113812 0 
0.0558431 -0.011408 0 
0.0596684 -0.0114223 0 
0.0634977 -0.0114289 0 
0.0673301 -0.0114313 0 
0.0711645 -0.0114319 0 
0.075 -0.0114319 0 
0 0 0 
0.00325753 -0.0027141 0 
0.00696405 -0.00521123 0 
0.0108129 -0.00721963 0 
0.0146443 -0.00876047 0 
0.0184315 -0.00992557 0 
0.0221838 -0.0108002 0 
0.0259162 -0.0114518 0 
0.0296411 -0.0119326 0 
0.0333674 -0.0122829 0 
0.037101 -0.012534 0 
0.0408451 -0.0127105 0 
0.0446014 -0.0128314 0 
0.04837 -0.0129117 0 
0.0521505 -0.012963 0 
0.0559416 -0.012994 0 
0.059742 -0.0130117 0 
0.0635498 -0.0130208 0 
0.0673634 -0.013025 0 
0.0711807 -0.0130266 0 
0.075 -0.0130269 0 
0 0 0 
0.00367975 -0.00357217 0 
0.00783391 -0.00651423 0 
0.0117684 -0.00866001 0 
0.0155359 -0.0102407 0 
0.0192118 -0.0114191 0 
0.0228451 -0.0123013 0 
0.0264656 -0.0129605 0 
0.030091 -0.0134498 0 
0.0337316 -0.0138093 0 
0.0373926 -0.0140699 0 
0.0410762 -0.0142557 0 
0.0447824 -0.0143853 0 
0.0485102 -0.0144734 0 
0.0522575 -0.0145315 0 
0.0560218 -0.0145684 0 
0.0598004 -0.0145907 0 
0.0635903 -0.0146035 0 
0.0673888 -0.0146102 0 
0.071193 -0.0146134 0 
0.075 -0.0146143 0 
0 0 0 
0.00554545 -0.00511743 0 
0.00956724 -0.00810444 0 
0.0131876 -0.0101924 0 
0.0166686 -0.0117349 0 
0.0201069 -0.0128963 0 
0.0235475 -0.0137753 0 
0.0270127 -0.0144396 0 
0.0305138 -0.0149387 0 
0.0340554 -0.0153103 0 
0.037638 -0.0155838 0 
0.0412601 -0.0157821 0 
0.0449186 -0.0159235 0 
0.0486095 -0.0160223 0 
0.0523288 -0.0160896 0 
0.0560719 -0.0161343 0 
0.0598347 -0.016163 0 
0.0636128 -0.0161806 0 
0.0674023 -0.0161908 0 
0.0711993 -0.016196 0 
0.075 -0.0161975 0 
CELL_DATA 400
TENSORS sigma float 
104.327 25.0777 0 25.0777 11.2686 0 0 0 32.1225 
89.3385 10.1026 0 10.1026 3.14939 0 0 0 25.9741 
81.6045 5.26132 0 5.26132 1.28469 0 0 0 23.39 
77.9096 3.0827 0 3.0827 0.626476 0 0 0 22.2113 
76.2537 1.89124 0 1.89124 0.322743 0 0 0 21.677 
75.6825 1.16487 0 1.16487 0.158814 0 0 0 21.4734 
75.7109 0.695036 0 0.695036 0.0612817 0 0 0 21.4501 
76.0702 0.382373 0 0.382373 -0.000611257 0 0 0 21.5259 
76.6017 0.173038 0 0.173038 -0.0416143 0 0 0 21.6541 
77.2072 0.0348044 0 0.0348044 -0.0695223 0 0 0 21.806 
77.8256 -0.0531466 0 -0.0531466 -0.0887866 0 0 0 21.964 
78.4184 -0.105052 0 -0.105052 -0.102125 0 0 0 22.1169 
78.9625 -0.131033 0 -0.131033 -0.111298 0 0 0 22.2581 
79.4447 -0.138455 0 -0.138455 -0.117508 0 0 0 22.3837 
79.8583 -0.132737 0 -0.132737 -0.121612 0 0 0 22.4918 
80.2008 -0.117868 0 -0.117868 -0.124236 0 0 0 22.5816 
80.4723 -0.0967741 0 -0.0967741 -0.125843 0 0 0 22.6528 
80.6738 -0.071586 0 -0.071586 -0.126774 0 0 0 22.7057 
80.807 -0.0438607 0 -0.0438607 -0.127268 0 0 0 22.7407 
80.8733 -0.0147643 0 -0.0147643 -0.127477 0 0 0 22.7582 
87.145 22.5468 0 22.5468 26.2598 0 0 0 32.5079 
87.3294 16.3961 0 16.3961 10.2688 0 0 0 27.6327 
84.6412 9.66804 0 9.66804 4.74963 0 0 0 25.2682 
82.0107 5.6039 0 5.6039 2.49634 0 0 0 23.8885 
80.2095 3.19373 0 3.19373 1.41513 0 0 0 23.0768 
79.1604 1.71841 0 1.71841 0.827338 0 0 0 22.6134 
78.6543 0.794013 0 0.794013 0.477404 0 0 0 22.3673 
78.5107 0.212072 0 0.212072 0.255227 0 0 0 22.2575 
78.5971 -0.147687 0 -0.147687 0.107878 0 0 0 22.2325 
78.8202 -0.359118 0 -0.359118 0.00749749 0 0 0 22.2589 
79.1158 -0.470006 0 -0.470006 -0.0617828 0 0 0 22.3146 
79.4397 -0.512508 0 -0.512508 -0.109667 0 0 0 22.3848 
79.7627 -0.508822 0 -0.508822 -0.142482 0 0 0 22.4596 
80.0655 -0.474461 0 -0.474461 -0.164578 0 0 0 22.5325 
80.3357 -0.420258 0 -0.420258 -0.179071 0 0 0 22.5992 
80.5663 -0.353688 0 -0.353688 -0.18825 0 0 0 22.6572 
80.753 -0.279777 0 -0.279777 -0.193808 0 0 0 22.7047 
80.8938 -0.201776 0 -0.201776 -0.196982 0 0 0 22.7409 
80.9879 -0.121681 0 -0.121681 -0.198641 0 0 0 22.7652 
81.035 -0.0406471 0 -0.0406471 -0.199335 0 0 0 22.7774 
80.8649 18.219 0 18.219 28.0386 0 0 0 31.4978 
83.3941 15.6172 0 15.6172 16.8066 0 0 0 28.7015 
83.8614 11.1723 0 11.1723 9.43584 0 0 0 26.554 
83.1372 7.2462 0 7.2462 5.45906 0 0 0 25.1318 
82.1579 4.41092 0 4.41092 3.27335 0 0 0 24.189 
81.3338 2.48207 0 2.48207 2.00096 0 0 0 23.5678 
80.7646 1.19966 0 1.19966 1.2168 0 0 0 23.1659 
80.4315 0.363486 0 0.363486 0.710888 0 0 0 22.9143 
80.2823 -0.165284 0 -0.165284 0.373757 0 0 0 22.7652 
80.2638 -0.481559 0 -0.481559 0.144692 0 0 0 22.6856 
80.3311 -0.650896 0 -0.650896 -0.0121519 0 0 0 22.6522 
80.4492 -0.719186 0 -0.719186 -0.119247 0 0 0 22.6484 
80.5923 -0.718851 0 -0.718851 -0.191469 0 0 0 22.6627 
80.7417 -0.672834 0 -0.672834 -0.239122 0 0 0 22.6867 
80.8847 -0.597261 0 -0.597261 -0.269583 0 0 0 22.7146 
81.0125 -0.503279 0 -0.503279 -0.288244 0 0 0 22.7423 
81.1194 -0.398386 0 -0.398386 -0.299061 0 0 0 22.7671 
81.2019 -0.287426 0 -0.287426 -0.304898 0 0 0 22.787 
81.2578 -0.173364 0 -0.173364 -0.307747 0 0 0 22.8009 
81.2861 -0.0579164 0 -0.0579164 -0.308866 0 0 0 22.808 
78.0566 14.677 0 14.677 28.278 0 0 0 30.8932 
80.781 13.378 0 13.378 20.0041 0 0 0 29.0629 
82.3773 10.6411 0 10.6411 13.1579 0 0 0 27.3628 
82.905 7.617 0 7.617 8.45648 0 0 0 26.0348 
82.8088 5.02032 0 5.02032 5.42732 0 0 0 25.0553 
82.4737 3.03477 0 3.03477 3.47912 0 0 0 24.3471 
82.1123 1.60629 0 1.60629 2.20185 0 0 0 23.8416 
81.8132 0.621094 0 0.621094 1.34583 0 0 0 23.4858 
81.5997 -0.0303281 0 -0.0303281 0.762169 0 0 0 23.2398 
81.4663 -0.437198 0 -0.437198 0.360354 0 0 0 23.0735 
81.3974 -0.668101 0 -0.668101 0.0833574 0 0 0 22.9649 
81.3756 -0.774467 0 -0.774467 -0.106276 0 0 0 22.8972 
81.3853 -0.79432 0 -0.79432 -0.234147 0 0 0 22.8581 
81.414 -0.755417 0 -0.755417 -0.318354 0 0 0 22.8382 
81.4518 -0.677712 0 -0.677712 -0.372008 0 0 0 22.8308 
81.4917 -0.575256 0 -0.575256 -0.404733 0 0 0 22.8307 
81.5285 -0.457677 0 -0.457677 -0.423594 0 0 0 22.8344 
81.5587 -0.331339 0 -0.331339 -0.433699 0 0 0 22.8391 
81.58 -0.200278 0 -0.200278 -0.438588 0 0 0 22.8432 
81.5909 -0.0669759 0 -0.0669759 -0.440493 0 0 0 22.8455 
76.6341 11.7581 0 11.7581 28.3256 0 0 0 30.5764 
79.1889 11.0045 0 11.0045 21.6744 0 0 0 29.2032 
81.1149 9.2746 0 9.2746 15.6535 0 0 0 27.842 
82.2751 7.10369 0 7.10369 10.9071 0 0 0 26.6615 
82.81 4.99739 0 4.99739 7.44442 0 0 0 25.7081 
82.9492 3.22025 0 3.22025 4.99842 0 0 0 24.9649 
82.8833 1.84242 0 1.84242 3.28446 0 0 0 24.3966 
82.7334 0.836071 0 0.836071 2.08182 0 0 0 23.9681 
82.5656 0.138707 0 0.138707 1.2358 0 0 0 23.6489 
82.4108 -0.316525 0 -0.316525 0.640925 0 0 0 23.4142 
82.2806 -0.589097 0 -0.589097 0.224875 0 0 0 23.244 
82.1769 -0.727809 0 -0.727809 -0.0628664 0 0 0 23.1227 
82.0974 -0.770947 0 -0.770947 -0.258401 0 0 0 23.0379 
82.0381 -0.74762 0 -0.74762 -0.388044 0 0 0 22.98 
81.9948 -0.679386 0 -0.679386 -0.47124 0 0 0 22.9415 
81.9641 -0.581789 0 -0.581789 -0.52243 0 0 0 22.9168 
81.9429 -0.46572 0 -0.46572 -0.552289 0 0 0 22.9016 
81.9288 -0.338565 0 -0.338565 -0.568555 0 0 0 22.8927 
81.9204 -0.205175 0 -0.205175 -0.576597 0 0 0 22.8879 
81.9164 -0.0686991 0 -0.0686991 -0.579801 0 0 0 22.8858 
75.8532 9.23703 0 9.23703 28.353 0 0 0 30.4106 
78.2133 8.7569 0 8.7569 22.6472 0 0 0 29.278 
80.1944 7.62744 0 7.62744 17.2908 0 0 0 28.1361 
81.6414 6.10629 0 6.10629 12.7328 0 0 0 27.0875 
82.5615 4.50649 0 4.50649 9.11646 0 0 0 26.1849 
83.0624 3.05306 0 3.05306 6.36632 0 0 0 25.4386 
83.274 1.85425 0 1.85425 4.32321 0 0 0 24.8371 
83.3059 0.933276 0 0.933276 2.82516 0 0 0 24.3608 
83.2363 0.267436 0 0.267436 1.73689 0 0 0 23.9889 
83.116 -0.184557 0 -0.184557 0.953617 0 0 0 23.702 
82.9761 -0.467306 0 -0.467306 0.396392 0 0 0 23.4833 
82.8348 -0.621553 0 -0.621553 0.00600244 0 0 0 23.3186 
82.7022 -0.681482 0 -0.681482 -0.262096 0 0 0 23.1961 
82.5838 -0.674291 0 -0.674291 -0.441573 0 0 0 23.1063 
82.4821 -0.620782 0 -0.620782 -0.557921 0 0 0 23.0416 
82.3979 -0.536337 0 -0.536337 -0.630383 0 0 0 22.9959 
82.3313 -0.43197 0 -0.43197 -0.673317 0 0 0 22.9644 
82.2819 -0.315329 0 -0.315329 -0.697195 0 0 0 22.9437 
82.2493 -0.191585 0 -0.191585 -0.709304 0 0 0 22.9312 
82.2331 -0.0642277 0 -0.0642277 -0.714246 0 0 0 22.9253 
75.4043 6.97289 0 6.97289 28.3796 0 0 0 30.3232 
77.6074 6.65615 0 6.65615 23.2555 0 0 0 29.3287 