# vtk DataFile Version 2.0
Generated by inSilico's base::io::vtk::LegacyWriter
ASCII
DATASET UNSTRUCTURED_GRID
POINTS 441 float
0 0 0 
0.05 0 0 
0.1 0 0 
0.15 0 0 
0.2 0 0 
0.25 0 0 
0.3 0 0 
0.35 0 0 
0.4 0 0 
0.45 0 0 
0.5 0 0 
0.55 0 0 
0.6 0 0 
0.65 0 0 
0.7 0 0 
0.75 0 0 
0.8 0 0 
0.85 0 0 
0.9 0 0 
0.95 0 0 
1 0 0 
0 0.05 0 
0.05 0.05 0 
0.1 0.05 0 
0.15 0.05 0 
0.2 0.05 0 
0.25 0.05 0 
0.3 0.05 0 
0.35 0.05 0 
0.4 0.05 0 
0.45 0.05 0 
0.5 0.05 0 
0.55 0.05 0 
0.6 0.05 0 
0.65 0.05 0 
0.7 0.05 0 
0.75 0.05 0 
0.8 0.05 0 
0.85 0.05 0 
0.9 0.05 0 
0.95 0.05 0 
1 0.05 0 
0 0.1 0 
0.05 0.1 0 
0.1 0.1 0 
0.15 0.1 0 
0.2 0.1 0 
0.25 0.1 0 
0.3 0.1 0 
0.35 0.1 0 
0.4 0.1 0 
0.45 0.1 0 
0.5 0.1 0 
0.55 0.1 0 
0.6 0.1 0 
0.65 0.1 0 
0.7 0.1 0 
0.75 0.1 0 
0.8 0.1 0 
0.85 0.1 0 
0.9 0.1 0 
0.95 0.1 0 
1 0.1 0 
0 0.15 0 
0.05 0.15 0 
0.1 0.15 0 
0.15 0.15 0 
0.2 0.15 0 
0.25 0.15 0 
0.3 0.15 0 
0.35 0.15 0 
0.4 0.15 0 
0.45 0.15 0 
0.5 0.15 0 
0.55 0.15 0 
0.6 0.15 0 
0.65 0.15 0 
0.7 0.15 0 
0.75 0.15 0 
0.8 0.15 0 
0.85 0.15 0 
0.9 0.15 0 
0.95 0.15 0 
1 0.15 0 
0 0.2 0 
0.05 0.2 0 
0.1 0.2 0 
0.15 0.2 0 
0.2 0.2 0 
0.25 0.2 0 
0.3 0.2 0 
0.35 0.2 0 
0.4 0.2 0 
0.45 0.2 0 
0.5 0.2 0 
0.55 0.2 0 
0.6 0.2 0 
0.65 0.2 0 
0.7 0.2 0 
0.75 0.2 0 
0.8 0.2 0 
0.85 0.2 0 
0.9 0.2 0 
0.95 0.2 0 
1 0.2 0 
0 0.25 0 
0.05 0.25 0 
0.1 0.25 0 
0.15 0.25 0 
0.2 0.25 0 
0.25 0.25 0 
0.3 0.25 0 
0.35 0.25 0 
0.4 0.25 0 
0.45 0.25 0 
0.5 0.25 0 
0.55 0.25 0 
0.6 0.25 0 
0.65 0.25 0 
0.7 0.25 0 
0.75 0.25 0 
0.8 0.25 0 
0.85 0.25 0 
0.9 0.25 0 
0.95 0.25 0 
1 0.25 0 
0 0.3 0 
0.05 0.3 0 
0.1 0.3 0 
0.15 0.3 0 
0.2 0.3 0 
0.25 0.3 0 
0.3 0.3 0 
0.35 0.3 0 
0.4 0.3 0 
0.45 0.3 0 
0.5 0.3 0 
0.55 0.3 0 
0.6 0.3 0 
0.65 0.3 0 
0.7 0.3 0 
0.75 0.3 0 
0.8 0.3 0 
0.85 0.3 0 
0.9 0.3 0 
0.95 0.3 0 
1 0.3 0 
0 0.35 0 
0.05 0.35 0 
0.1 0.35 0 
0.15 0.35 0 
0.2 0.35 0 
0.25 0.35 0 
0.3 0.35 0 
0.35 0.35 0 
0.4 0.35 0 
0.45 0.35 0 
0.5 0.35 0 
0.55 0.35 0 
0.6 0.35 0 
0.65 0.35 0 
0.7 0.35 0 
0.75 0.35 0 
0.8 0.35 0 
0.85 0.35 0 
0.9 0.35 0 
0.95 0.35 0 
1 0.35 0 
0 0.4 0 
0.05 0.4 0 
0.1 0.4 0 
0.15 0.4 0 
0.2 0.4 0 
0.25 0.4 0 
0.3 0.4 0 
0.35 0.4 0 
0.4 0.4 0 
0.45 0.4 0 
0.5 0.4 0 
0.55 0.4 0 
0.6 0.4 0 
0.65 0.4 0 
0.7 0.4 0 
0.75 0.4 0 
0.8 0.4 0 
0.85 0.4 0 
0.9 0.4 0 
0.95 0.4 0 
1 0.4 0 
0 0.45 0 
0.05 0.45 0 
0.1 0.45 0 
0.15 0.45 0 
0.2 0.45 0 
0.25 0.45 0 
0.3 0.45 0 
0.35 0.45 0 
0.4 0.45 0 
0.45 0.45 0 
0.5 0.45 0 
0.55 0.45 0 
0.6 0.45 0 
0.65 0.45 0 
0.7 0.45 0 
0.75 0.45 0 
0.8 0.45 0 
0.85 0.45 0 
0.9 0.45 0 
0.95 0.45 0 
1 0.45 0 
0 0.5 0 
0.05 0.5 0 
0.1 0.5 0 
0.15 0.5 0 
0.2 0.5 0 
0.25 0.5 0 
0.3 0.5 0 
0.35 0.5 0 
0.4 0.5 0 
0.45 0.5 0 
0.5 0.5 0 
0.55 0.5 0 
0.6 0.5 0 
0.65 0.5 0 
0.7 0.5 0 
0.75 0.5 0 
0.8 0.5 0 
0.85 0.5 0 
0.9 0.5 0 
0.95 0.5 0 
1 0.5 0 
0 0.55 0 
0.05 0.55 0 
0.1 0.55 0 
0.15 0.55 0 
0.2 0.55 0 
0.25 0.55 0 
0.3 0.55 0 
0.35 0.55 0 
0.4 0.55 0 
0.45 0.55 0 
0.5 0.55 0 
0.55 0.55 0 
0.6 0.55 0 
0.65 0.55 0 
0.7 0.55 0 
0.75 0.55 0 
0.8 0.55 0 
0.85 0.55 0 
0.9 0.55 0 
0.95 0.55 0 
1 0.55 0 
0 0.6 0 
0.05 0.6 0 
0.1 0.6 0 
0.15 0.6 0 
0.2 0.6 0 
0.25 0.6 0 
0.3 0.6 0 
0.35 0.6 0 
0.4 0.6 0 
0.45 0.6 0 
0.5 0.6 0 
0.55 0.6 0 
0.6 0.6 0 
0.65 0.6 0 
0.7 0.6 0 
0.75 0.6 0 
0.8 0.6 0 
0.85 0.6 0 
0.9 0.6 0 
0.95 0.6 0 
1 0.6 0 
0 0.65 0 
0.05 0.65 0 
0.1 0.65 0 
0.15 0.65 0 
0.2 0.65 0 
0.25 0.65 0 
0.3 0.65 0 
0.35 0.65 0 
0.4 0.65 0 
0.45 0.65 0 
0.5 0.65 0 
0.55 0.65 0 
0.6 0.65 0 
0.65 0.65 0 
0.7 0.65 0 
0.75 0.65 0 
0.8 0.65 0 
0.85 0.65 0 
0.9 0.65 0 
0.95 0.65 0 
1 0.65 0 
0 0.7 0 
0.05 0.7 0 
0.1 0.7 0 
0.15 0.7 0 
0.2 0.7 0 
0.25 0.7 0 
0.3 0.7 0 
0.35 0.7 0 
0.4 0.7 0 
0.45 0.7 0 
0.5 0.7 0 
0.55 0.7 0 
0.6 0.7 0 
0.65 0.7 0 
0.7 0.7 0 
0.75 0.7 0 
0.8 0.7 0 
0.85 0.7 0 
0.9 0.7 0 
0.95 0.7 0 
1 0.7 0 
0 0.75 0 
0.05 0.75 0 
0.1 0.75 0 
0.15 0.75 0 
0.2 0.75 0 
0.25 0.75 0 
0.3 0.75 0 
0.35 0.75 0 
0.4 0.75 0 
0.45 0.75 0 
0.5 0.75 0 
0.55 0.75 0 
0.6 0.75 0 
0.65 0.75 0 
0.7 0.75 0 
0.75 0.75 0 
0.8 0.75 0 
0.85 0.75 0 
0.9 0.75 0 
0.95 0.75 0 
1 0.75 0 
0 0.8 0 
0.05 0.8 0 
0.1 0.8 0 
0.15 0.8 0 
0.2 0.8 0 
0.25 0.8 0 
0.3 0.8 0 
0.35 0.8 0 
0.4 0.8 0 
0.45 0.8 0 
0.5 0.8 0 
0.55 0.8 0 
0.6 0.8 0 
0.65 0.8 0 
0.7 0.8 0 
0.75 0.8 0 
0.8 0.8 0 
0.85 0.8 0 
0.9 0.8 0 
0.95 0.8 0 
1 0.8 0 
0 0.85 0 
0.05 0.85 0 
0.1 0.85 0 
0.15 0.85 0 
0.2 0.85 0 
0.25 0.85 0 
0.3 0.85 0 
0.35 0.85 0 
0.4 0.85 0 
0.45 0.85 0 
0.5 0.85 0 
0.55 0.85 0 
0.6 0.85 0 
0.65 0.85 0 
0.7 0.85 0 
0.75 0.85 0 
0.8 0.85 0 
0.85 0.85 0 
0.9 0.85 0 
0.95 0.85 0 
1 0.85 0 
0 0.9 0 
0.05 0.9 0 
0.1 0.9 0 
0.15 0.9 0 
0.2 0.9 0 
0.25 0.9 0 
0.3 0.9 0 
0.35 0.9 0 
0.4 0.9 0 
0.45 0.9 0 
0.5 0.9 0 
0.55 0.9 0 
0.6 0.9 0 
0.65 0.9 0 
0.7 0.9 0 
0.75 0.9 0 
0.8 0.9 0 
0.85 0.9 0 
0.9 0.9 0 
0.95 0.9 0 
1 0.9 0 
0 0.95 0 
0.05 0.95 0 
0.1 0.95 0 
0.15 0.95 0 
0.2 0.95 0 
0.25 0.95 0 
0.3 0.95 0 
0.35 0.95 0 
0.4 0.95 0 
0.45 0.95 0 
0.5 0.95 0 
0.55 0.95 0 
0.6 0.95 0 
0.65 0.95 0 
0.7 0.95 0 
0.75 0.95 0 
0.8 0.95 0 
0.85 0.95 0 
0.9 0.95 0 
0.95 0.95 0 
1 0.95 0 
0 1 0 
0.05 1 0 
0.1 1 0 
0.15 1 0 
0.2 1 0 
0.25 1 0 
0.3 1 0 
0.35 1 0 
0.4 1 0 
0.45 1 0 
0.5 1 0 
0.55 1 0 
0.6 1 0 
0.65 1 0 
0.7 1 0 
0.75 1 0 
0.8 1 0 
0.85 1 0 
0.9 1 0 
0.95 1 0 
1 1 0 
CELLS 400 2000
4 0 1 22 21 
4 1 2 23 22 
4 2 3 24 23 
4 3 4 25 24 
4 4 5 26 25 
4 5 6 27 26 
4 6 7 28 27 
4 7 8 29 28 
4 8 9 30 29 
4 9 10 31 30 
4 10 11 32 31 
4 11 12 33 32 
4 12 13 34 33 
4 13 14 35 34 
4 14 15 36 35 
4 15 16 37 36 
4 16 17 38 37 
4 17 18 39 38 
4 18 19 40 39 
4 19 20 41 40 
4 21 22 43 42 
4 22 23 44 43 
4 23 24 45 44 
4 24 25 46 45 
4 25 26 47 46 
4 26 27 48 47 
4 27 28 49 48 
4 28 29 50 49 
4 29 30 51 50 
4 30 31 52 51 
4 31 32 53 52 
4 32 33 54 53 
4 33 34 55 54 
4 34 35 56 55 
4 35 36 57 56 
4 36 37 58 57 
4 37 38 59 58 
4 38 39 60 59 
4 39 40 61 60 
4 40 41 62 61 
4 42 43 64 63 
4 43 44 65 64 
4 44 45 66 65 
4 45 46 67 66 
4 46 47 68 67 
4 47 48 69 68 
4 48 49 70 69 
4 49 50 71 70 
4 50 51 72 71 
4 51 52 73 72 
4 52 53 74 73 
4 53 54 75 74 
4 54 55 76 75 
4 55 56 77 76 
4 56 57 78 77 
4 57 58 79 78 
4 58 59 80 79 
4 59 60 81 80 
4 60 61 82 81 
4 61 62 83 82 
4 63 64 85 84 
4 64 65 86 85 
4 65 66 87 86 
4 66 67 88 87 
4 67 68 89 88 
4 68 69 90 89 
4 69 70 91 90 
4 70 71 92 91 
4 71 72 93 92 
4 72 73 94 93 
4 73 74 95 94 
4 74 75 96 95 
4 75 76 97 96 
4 76 77 98 97 
4 77 78 99 98 
4 78 79 100 99 
4 79 80 101 100 
4 80 81 102 101 
4 81 82 103 102 
4 82 83 104 103 
4 84 85 106 105 
4 85 86 107 106 
4 86 87 108 107 
4 87 88 109 108 
4 88 89 110 109 
4 89 90 111 110 
4 90 91 112 111 
4 91 92 113 112 
4 92 93 114 113 
4 93 94 115 114 
4 94 95 116 115 
4 95 96 117 116 
4 96 97 118 117 
4 97 98 119 118 
4 98 99 120 119 
4 99 100 121 120 
4 100 101 122 121 
4 101 102 123 122 
4 102 103 124 123 
4 103 104 125 124 
4 105 106 127 126 
4 106 107 128 127 
4 107 108 129 128 
4 108 109 130 129 
4 109 110 131 130 
4 110 111 132 131 
4 111 112 133 132 
4 112 113 134 133 
4 113 114 135 134 
4 114 115 136 135 
4 115 116 137 136 
4 116 117 138 137 
4 117 118 139 138 
4 118 119 140 139 
4 119 120 141 140 
4 120 121 142 141 
4 121 122 143 142 
4 122 123 144 143 
4 123 124 145 144 
4 124 125 146 145 
4 126 127 148 147 
4 127 128 149 148 
4 128 129 150 149 
4 129 130 151 150 
4 130 131 152 151 
4 131 132 153 152 
4 132 133 154 153 
4 133 134 155 154 
4 134 135 156 155 
4 135 136 157 156 
4 136 137 158 157 
4 137 138 159 158 
4 138 139 160 159 
4 139 140 161 160 
4 140 141 162 161 
4 141 142 163 162 
4 142 143 164 163 
4 143 144 165 164 
4 144 145 166 165 
4 145 146 167 166 
4 147 148 169 168 
4 148 149 170 169 
4 149 150 171 170 
4 150 151 172 171 
4 151 152 173 172 
4 152 153 174 173 
4 153 154 175 174 
4 154 155 176 175 
4 155 156 177 176 
4 156 157 178 177 
4 157 158 179 178 
4 158 159 180 179 
4 159 160 181 180 
4 160 161 182 181 
4 161 162 183 182 
4 162 163 184 183 
4 163 164 185 184 
4 164 165 186 185 
4 165 166 187 186 
4 166 167 188 187 
4 168 169 190 189 
4 169 170 191 190 
4 170 171 192 191 
4 171 172 193 192 
4 172 173 194 193 
4 173 174 195 194 
4 174 175 196 195 
4 175 176 197 196 
4 176 177 198 197 
4 177 178 199 198 
4 178 179 200 199 
4 179 180 201 200 
4 180 181 202 201 
4 181 182 203 202 
4 182 183 204 203 
4 183 184 205 204 
4 184 185 206 205 
4 185 186 207 206 
4 186 187 208 207 
4 187 188 209 208 
4 189 190 211 210 
4 190 191 212 211 
4 191 192 213 212 
4 192 193 214 213 
4 193 194 215 214 
4 194 195 216 215 
4 195 196 217 216 
4 196 197 218 217 
4 197 198 219 218 
4 198 199 220 219 
4 199 200 221 220 
4 200 201 222 221 
4 201 202 223 222 
4 202 203 224 223 
4 203 204 225 224 
4 204 205 226 225 
4 205 206 227 226 
4 206 207 228 227 
4 207 208 229 228 
4 208 209 230 229 
4 210 211 232 231 
4 211 212 233 232 
4 212 213 234 233 
4 213 214 235 234 
4 214 215 236 235 
4 215 216 237 236 
4 216 217 238 237 
4 217 218 239 238 
4 218 219 240 239 
4 219 220 241 240 
4 220 221 242 241 
4 221 222 243 242 
4 222 223 244 243 
4 223 224 245 244 
4 224 225 246 245 
4 225 226 247 246 
4 226 227 248 247 
4 227 228 249 248 
4 228 229 250 249 
4 229 230 251 250 
4 231 232 253 252 
4 232 233 254 253 
4 233 234 255 254 
4 234 235 256 255 
4 235 236 257 256 
4 236 237 258 257 
4 237 238 259 258 
4 238 239 260 259 
4 239 240 261 260 
4 240 241 262 261 
4 241 242 263 262 
4 242 243 264 263 
4 243 244 265 264 
4 244 245 266 265 
4 245 246 267 266 
4 246 247 268 267 
4 247 248 269 268 
4 248 249 270 269 
4 249 250 271 270 
4 250 251 272 271 
4 252 253 274 273 
4 253 254 275 274 
4 254 255 276 275 
4 255 256 277 276 
4 256 257 278 277 
4 257 258 279 278 
4 258 259 280 279 
4 259 260 281 280 
4 260 261 282 281 
4 261 262 283 282 
4 262 263 284 283 
4 263 264 285 284 
4 264 265 286 285 
4 265 266 287 286 
4 266 267 288 287 
4 267 268 289 288 
4 268 269 290 289 
4 269 270 291 290 
4 270 271 292 291 
4 271 272 293 292 
4 273 274 295 294 
4 274 275 296 295 
4 275 276 297 296 
4 276 277 298 297 
4 277 278 299 298 
4 278 279 300 299 
4 279 280 301 300 
4 280 281 302 301 
4 281 282 303 302 
4 282 283 304 303 
4 283 284 305 304 
4 284 285 306 305 
4 285 286 307 306 
4 286 287 308 307 
4 287 288 309 308 
4 288 289 310 309 
4 289 290 311 310 
4 290 291 312 311 
4 291 292 313 312 
4 292 293 314 313 
4 294 295 316 315 
4 295 296 317 316 
4 296 297 318 317 
4 297 298 319 318 
4 298 299 320 319 
4 299 300 321 320 
4 300 301 322 321 
4 301 302 323 322 
4 302 303 324 323 
4 303 304 325 324 
4 304 305 326 325 
4 305 306 327 326 
4 306 307 328 327 
4 307 308 329 328 
4 308 309 330 329 
4 309 310 331 330 
4 310 311 332 331 
4 311 312 333 332 
4 312 313 334 333 
4 313 314 335 334 
4 315 316 337 336 
4 316 317 338 337 
4 317 318 339 338 
4 318 319 340 339 
4 319 320 341 340 
4 320 321 342 341 
4 321 322 343 342 
4 322 323 344 343 
4 323 324 345 344 
4 324 325 346 345 
4 325 326 347 346 
4 326 327 348 347 
4 327 328 349 348 
4 328 329 350 349 
4 329 330 351 350 
4 330 331 352 351 
4 331 332 353 352 
4 332 333 354 353 
4 333 334 355 354 
4 334 335 356 355 
4 336 337 358 357 
4 337 338 359 358 
4 338 339 360 359 
4 339 340 361 360 
4 340 341 362 361 
4 341 342 363 362 
4 342 343 364 363 
4 343 344 365 364 
4 344 345 366 365 
4 345 346 367 366 
4 346 347 368 367 
4 347 348 369 368 
4 348 349 370 369 
4 349 350 371 370 
4 350 351 372 371 
4 351 352 373 372 
4 352 353 374 373 
4 353 354 375 374 
4 354 355 376 375 
4 355 356 377 376 
4 357 358 379 378 
4 358 359 380 379 
4 359 360 381 380 
4 360 361 382 381 
4 361 362 383 382 
4 362 363 384 383 
4 363 364 385 384 
4 364 365 386 385 
4 365 366 387 386 
4 366 367 388 387 
4 367 368 389 388 
4 368 369 390 389 
4 369 370 391 390 
4 370 371 392 391 
4 371 372 393 392 
4 372 373 394 393 
4 373 374 395 394 
4 374 375 396 395 
4 375 376 397 396 
4 376 377 398 397 
4 378 379 400 399 
4 379 380 401 400 
4 380 381 402 401 
4 381 382 403 402 
4 382 383 404 403 
4 383 384 405 404 
4 384 385 406 405 
4 385 386 407 406 
4 386 387 408 407 
4 387 388 409 408 
4 388 389 410 409 
4 389 390 411 410 
4 390 391 412 411 
4 391 392 413 412 
4 392 393 414 413 
4 393 394 415 414 
4 394 395 416 415 
4 395 396 417 416 
4 396 397 418 417 
4 397 398 419 418 
4 399 400 421 420 
4 400 401 422 421 
4 401 402 423 422 
4 402 403 424 423 
4 403 404 425 424 
4 404 405 426 425 
4 405 406 427 426 
4 406 407 428 427 
4 407 408 429 428 
4 408 409 430 429 
4 409 410 431 430 
4 410 411 432 431 
4 411 412 433 432 
4 412 413 434 433 
4 413 414 435 434 
4 414 415 436 435 
4 415 416 437 436 
4 416 417 438 437 
4 417 418 439 438 
4 418 419 440 439 
CELL_TYPES 400
9
9
9
9
9
9
9
9
9
9
9
9
9
9
9
9
9
9
9
9
9
9
9
9
9
9
9
9
9
9
9
9
9
9
9
9
9
9
9
9
9
9
9
9
9
9
9
9
9
9
9
9
9
9
9
9
9
9
9
9
9
9
9
9
9
9
9
9
9
9
9
9
9
9
9
9
9
9
9
9
9
9
9
9
9
9
9
9
9
9
9
9
9
9
9
9
9
9
9
9
9
9
9
9
9
9
9
9
9
9
9
9
9
9
9
9
9
9
9
9
9
9
9
9
9
9
9
9
9
9
9
9
9
9
9
9
9
9
9
9
9
9
9
9
9
9
9
9
9
9
9
9
9
9
9
9
9
9
9
9
9
9
9
9
9
9
9
9
9
9
9
9
9
9
9
9
9
9
9
9
9
9
9
9
9
9
9
9
9
9
9
9
9
9
9
9
9
9
9
9
9
9
9
9
9
9
9
9
9
9
9
9
9
9
9
9
9
9
9
9
9
9
9
9
9
9
9
9
9
9
9
9
9
9
9
9
9
9
9
9
9
9
9
9
9
9
9
9
9
9
9
9
9
9
9
9
9
9
9
9
9
9
9
9
9
9
9
9
9
9
9
9
9
9
9
9
9
9
9
9
9
9
9
9
9
9
9
9
9
9
9
9
9
9
9
9
9
9
9
9
9
9
9
9
9
9
9
9
9
9
9
9
9
9
9
9
9
9
9
9
9
9
9
9
9
9
9
9
9
9
9
9
9
9
9
9
9
9
9
9
9
9
9
9
9
9
9
9
9
9
9
9
9
9
9
9
9
9
9
9
9
9
9
9
9
9
9
9
9
9
9
9
9
9
9
9
9
9
9
9
9
9
9
9
9
9
9
9
9
9
9
9
9
9
9
9
9
9
9
9
POINT_DATA 441
VECTORS disp float 
0 0 0 
0.0287559 0.0286292 0 
0.052407 0.0446752 0 
0.0749564 0.0556493 0 
0.0972495 0.0636166 0 
0.119584 0.0695276 0 
0.142085 0.0739462 0 
0.164805 0.0772521 0 
0.187759 0.0797187 0 
0.210942 0.0815497 0 
0.234337 0.0828998 0 
0.257921 0.0838874 0 
0.281671 0.0846033 0 
0.305561 0.0851169 0 
0.32957 0.0854811 0 
0.353674 0.0857356 0 
0.377853 0.0859101 0 
0.402092 0.0860262 0 
0.426372 0.0860993 0 
0.450679 0.0861392 0 
0.475 0.086152 0 
0 0 0 
0.0224107 0.0207747 0 
0.0465441 0.0363115 0 
0.0701996 0.0474048 0 
0.0934978 0.0554702 0 
0.116656 0.0614134 0 
0.139816 0.0658183 0 
0.163057 0.0690847 0 
0.18642 0.0714995 0 
0.209922 0.0732754 0 
0.233565 0.0745721 0 
0.257341 0.0755107 0 
0.281238 0.0761836 0 
0.305241 0.0766605 0 
0.329335 0.0769941 0 
0.353505 0.077224 0 
0.377734 0.0773792 0 
0.402011 0.0774809 0 
0.426322 0.077544 0 
0.450656 0.0775781 0 
0.475 0.0775889 0 
0 0 0 
0.0206582 0.0159212 0 
0.0433886 0.0294736 0 
0.0668404 0.0398837 0 
0.0904198 0.0476773 0 
0.114003 0.0534772 0 
0.137599 0.0577808 0 
0.16124 0.0609618 0 
0.18495 0.0633004 0 
0.208746 0.0650077 0 
0.232632 0.0662438 0 
0.256608 0.06713 0 
0.280667 0.0677582 0 
0.304801 0.068198 0 
0.329 0.0685013 0 
0.353254 0.068707 0 
0.377552 0.0688435 0 
0.401885 0.0689314 0 
0.426243 0.0689849 0 
0.450617 0.0690135 0 
0.475 0.0690225 0 
0 0 0 
0.0199895 0.0125958 0 
0.0417799 0.0239206 0 
0.0646831 0.0331716 0 
0.0881241 0.0403612 0 
0.111811 0.045816 0 
0.135626 0.0498983 0 
0.159526 0.0529225 0 
0.183497 0.0551421 0 
0.207537 0.0567555 0 
0.23164 0.0579162 0 
0.255805 0.0587416 0 
0.280025 0.0593211 0 
0.304294 0.059722 0 
0.328605 0.0599948 0 
0.352952 0.0601769 0 
0.377329 0.0602957 0 
0.401727 0.0603706 0 
0.426143 0.0604154 0 
0.450569 0.0604389 0 
0.475 0.0604462 0 
0 0 0 
0.0196841 0.010051 0 
0.0409132 0.0193238 0 
0.0633214 0.0272136 0 
0.0864861 0.0335586 0 
0.110099 0.0384825 0 
0.133975 0.0422158 0 
0.158014 0.0449991 0 
0.182162 0.0470453 0 
0.206386 0.0485305 0 
0.230669 0.0495946 0 
0.254999 0.0503467 0 
0.279367 0.0508706 0 
0.303765 0.0512294 0 
0.328187 0.0514706 0 
0.352629 0.0516293 0 
0.377086 0.051731 0 
0.401555 0.0517939 0 
0.426032 0.0518308 0 
0.450515 0.0518498 0 
0.475 0.0518557 0 
0 0 0 
0.0195307 0.00794845 0 
0.0404185 0.0153823 0 
0.0624534 0.0218742 0 
0.0853393 0.027236 0 
0.108806 0.0314855 0 
0.132654 0.0347539 0 
0.156748 0.0372114 0 
0.181001 0.0390255 0 
0.205357 0.040343 0 
0.22978 0.0412852 0 
0.254246 0.0419485 0 
0.278741 0.0424077 0 
0.303254 0.0427198 0 
0.327779 0.0429274 0 
0.35231 0.0430623 0 
0.376845 0.0431474 0 
0.401383 0.0431991 0 
0.425922 0.0432288 0 
0.450461 0.0432439 0 
0.475 0.0432485 0 
0 0 0 
0.0194496 0.00611797 0 
0.0401245 0.0118853 0 
0.0618936 0.0170067 0 
0.0845461 0.0213194 0 
0.107859 0.0247972 0 
0.131639 0.0275077 0 
0.155736 0.0295638 0 
0.180044 0.0310894 0 
0.204487 0.0321997 0 
0.229012 0.0329934 0 
0.253586 0.0335509 0 
0.278185 0.0339352 0 
0.302796 0.0341948 0 
0.327408 0.0343661 0 
0.352019 0.0344763 0 
0.376624 0.0345449 0 
0.401224 0.0345859 0 
0.425819 0.0346091 0 
0.45041 0.0346206 0 
0.475 0.0346241 0 
0 0 0 
0.0194057 0.00446237 0 
0.0399466 0.00868929 0 
0.0615335 0.0124833 0 
0.0840091 0.0157216 0 
0.107188 0.0183674 0 
0.130893 0.0204518 0 
0.154971 0.0220456 0 
0.179303 0.023234 0 
0.203799 0.0241012 0 
0.228396 0.0247215 0 
0.253048 0.0251567 0 
0.277728 0.0254558 0 
0.302415 0.0256571 0 
0.327098 0.0257891 0 
0.351773 0.0258734 0 
0.376436 0.0259253 0 
0.401088 0.025956 0 
0.425731 0.025973 0 
0.450367 0.0259814 0 
0.475 0.0259839 0 
0 0 0 
0.0193824 0.0029192 0 
0.0398412 0.00569242 0 
0.0613102 0.00819831 0 
0.0836638 0.010356 0 
0.106743 0.0121349 0 
0.130385 0.0135474 0 
0.154437 0.0146339 0 
0.178776 0.0154475 0 
0.203303 0.0160425 0 
0.227946 0.0164686 0 
0.252652 0.0167673 0 
0.277388 0.0169723 0 
0.30213 0.0171099 0 
0.326865 0.0171998 0 
0.351587 0.0172568 0 
0.376294 0.0172917 0 
0.400986 0.0173122 0 
0.425665 0.0173234 0 
0.450335 0.0173289 0 
0.475 0.0173305 0 
0 0 0 
0.019371 0.00144366 0 
0.0397854 0.00281728 0 
0.0611882 0.00406304 0 
0.0834709 0.00514105 0 
0.10649 0.00603444 0 
0.13009 0.00674718 0 
0.154123 0.00729752 0 
0.178462 0.00771071 0 
0.203005 0.00801342 0 
0.227673 0.00823028 0 
0.25241 0.00838233 0 
0.277179 0.00848662 0 
0.301954 0.00855648 0 
0.326721 0.00860204 0 
0.351472 0.00863085 0 
0.376205 0.0086484 0 
0.400921 0.00865862 0 
0.425623 0.00866421 0 
0.450314 0.00866692 0 
0.475 0.00866772 0 
0 0 0 
0.0193676 3.32715e-18 0 
0.0397679 9.73283e-18 0 
0.0611494 1.18517e-17 0 
0.0834088 1.46604e-17 0 
0.106407 1.38371e-17 0 
0.129993 1.21348e-17 0 
0.154019 1.33747e-17 0 
0.178358 2.74506e-17 0 
0.202905 1.42844e-17 0 
0.227581 2.68221e-17 0 
0.252329 3.49316e-17 0 
0.277108 4.75694e-17 0 
0.301894 5.21162e-17 0 
0.326672 7.26958e-17 0 
0.351433 6.03697e-17 0 
0.376175 9.99228e-17 0 
0.4009 1.04307e-16 0 
0.425609 1.30819e-16 0 
0.450307 1.5456e-16 0 
0.475 1.83366e-16 0 
0 0 0 
0.019371 -0.00144366 0 
0.0397854 -0.00281728 0 
0.0611882 -0.00406304 0 
0.0834709 -0.00514105 0 
0.10649 -0.00603444 0 
0.13009 -0.00674718 0 
0.154123 -0.00729752 0 
0.178462 -0.00771071 0 
0.203005 -0.00801342 0 
0.227673 -0.00823028 0 
0.25241 -0.00838233 0 
0.277179 -0.00848662 0 
0.301954 -0.00855648 0 
0.326721 -0.00860204 0 
0.351472 -0.00863085 0 
0.376205 -0.0086484 0 
0.400921 -0.00865862 0 
0.425623 -0.00866421 0 
0.450314 -0.00866692 0 
0.475 -0.00866772 0 
0 0 0 
0.0193824 -0.0029192 0 
0.0398412 -0.00569242 0 
0.0613102 -0.00819831 0 
0.0836638 -0.010356 0 
0.106743 -0.0121349 0 
0.130385 -0.0135474 0 
0.154437 -0.0146339 0 
0.178776 -0.0154475 0 
0.203303 -0.0160425 0 
0.227946 -0.0164686 0 
0.252652 -0.0167673 0 
0.277388 -0.0169723 0 
0.30213 -0.0171099 0 
0.326865 -0.0171998 0 
0.351587 -0.0172568 0 
0.376294 -0.0172917 0 
0.400986 -0.0173122 0 
0.425665 -0.0173234 0 
0.450335 -0.0173289 0 
0.475 -0.0173305 0 
0 0 0 
0.0194057 -0.00446237 0 
0.0399466 -0.00868929 0 
0.0615335 -0.0124833 0 
0.0840091 -0.0157216 0 
0.107188 -0.0183674 0 
0.130893 -0.0204518 0 
0.154971 -0.0220456 0 
0.179303 -0.023234 0 
0.203799 -0.0241012 0 
0.228396 -0.0247215 0 
0.253048 -0.0251567 0 
0.277728 -0.0254558 0 
0.302415 -0.0256571 0 
0.327098 -0.0257891 0 
0.351773 -0.0258734 0 
0.376436 -0.0259253 0 
0.401088 -0.025956 0 
0.425731 -0.025973 0 
0.450367 -0.0259814 0 
0.475 -0.0259839 0 
0 0 0 
0.0194496 -0.00611797 0 
0.0401245 -0.0118853 0 
0.0618936 -0.0170067 0 
0.0845461 -0.0213194 0 
0.107859 -0.0247972 0 
0.131639 -0.0275077 0 
0.155736 -0.0295638 0 
0.180044 -0.0310894 0 
0.204487 -0.0321997 0 
0.229012 -0.0329934 0 
0.253586 -0.0335509 0 
0.278185 -0.0339352 0 
0.302796 -0.0341948 0 
0.327408 -0.0343661 0 
0.352019 -0.0344763 0 
0.376624 -0.0345449 0 
0.401224 -0.0345859 0 
0.425819 -0.0346091 0 
0.45041 -0.0346206 0 
0.475 -0.0346241 0 
0 0 0 
0.0195307 -0.00794845 0 
0.0404185 -0.0153823 0 
0.0624534 -0.0218742 0 
0.0853393 -0.027236 0 
0.108806 -0.0314855 0 
0.132654 -0.0347539 0 
0.156748 -0.0372114 0 
0.181001 -0.0390255 0 
0.205357 -0.040343 0 
0.22978 -0.0412852 0 
0.254246 -0.0419485 0 
0.278741 -0.0424077 0 
0.303254 -0.0427198 0 
0.327779 -0.0429274 0 
0.35231 -0.0430623 0 
0.376845 -0.0431474 0 
0.401383 -0.0431991 0 
0.425922 -0.0432288 0 
0.450461 -0.0432439 0 
0.475 -0.0432485 0 
0 0 0 
0.0196841 -0.010051 0 
0.0409132 -0.0193238 0 
0.0633214 -0.0272136 0 
0.0864861 -0.0335586 0 
0.110099 -0.0384825 0 
0.133975 -0.0422158 0 
0.158014 -0.0449991 0 
0.182162 -0.0470453 0 
0.206386 -0.0485305 0 
0.230669 -0.0495946 0 
0.254999 -0.0503467 0 
0.279367 -0.0508706 0 
0.303765 -0.0512294 0 
0.328187 -0.0514706 0 
0.352629 -0.0516293 0 
0.377086 -0.051731 0 
0.401555 -0.0517939 0 
0.426032 -0.0518308 0 
0.450515 -0.0518498 0 
0.475 -0.0518557 0 
0 0 0 
0.0199895 -0.0125958 0 
0.0417799 -0.0239206 0 
0.0646831 -0.0331716 0 
0.0881241 -0.0403612 0 
0.111811 -0.045816 0 
0.135626 -0.0498983 0 
0.159526 -0.0529225 0 
0.183497 -0.0551421 0 
0.207537 -0.0567555 0 
0.23164 -0.0579162 0 
0.255805 -0.0587416 0 
0.280025 -0.0593211 0 
0.304294 -0.059722 0 
0.328605 -0.0599948 0 
0.352952 -0.0601769 0 
0.377329 -0.0602957 0 
0.401727 -0.0603706 0 
0.426143 -0.0604154 0 
0.450569 -0.0604389 0 
0.475 -0.0604462 0 
0 0 0 
0.0206582 -0.0159212 0 
0.0433886 -0.0294736 0 
0.0668404 -0.0398837 0 
0.0904198 -0.0476773 0 
0.114003 -0.0534772 0 
0.137599 -0.0577808 0 
0.16124 -0.0609618 0 
0.18495 -0.0633004 0 
0.208746 -0.0650077 0 
0.232632 -0.0662438 0 
0.256608 -0.06713 0 
0.280667 -0.0677582 0 
0.304801 -0.068198 0 
0.329 -0.0685013 0 
0.353254 -0.068707 0 
0.377552 -0.0688435 0 
0.401885 -0.0689314 0 
0.426243 -0.0689849 0 
0.450617 -0.0690135 0 
0.475 -0.0690225 0 
0 0 0 
0.0224107 -0.0207747 0 
0.0465441 -0.0363115 0 
0.0701996 -0.0474048 0 
0.0934978 -0.0554702 0 
0.116656 -0.0614134 0 
0.139816 -0.0658183 0 
0.163057 -0.0690847 0 
0.18642 -0.0714995 0 
0.209922 -0.0732754 0 
0.233565 -0.0745721 0 
0.257341 -0.0755107 0 
0.281238 -0.0761836 0 
0.305241 -0.0766605 0 
0.329335 -0.0769941 0 
0.353505 -0.077224 0 
0.377734 -0.0773792 0 
0.402011 -0.0774809 0 
0.426322 -0.077544 0 
0.450656 -0.0775781 0 
0.475 -0.0775889 0 
0 0 0 
0.0287559 -0.0286292 0 
0.052407 -0.0446752 0 
0.0749564 -0.0556493 0 
0.0972495 -0.0636166 0 
0.119584 -0.0695276 0 
0.142085 -0.0739462 0 
0.164805 -0.0772521 0 
0.187759 -0.0797187 0 
0.210942 -0.0815497 0 
0.234337 -0.0828998 0 
0.257921 -0.0838874 0 
0.281671 -0.0846033 0 
0.305561 -0.0851169 0 
0.32957 -0.0854811 0 
0.353674 -0.0857356 0 
0.377853 -0.0859101 0 
0.402092 -0.0860262 0 
0.426372 -0.0860993 0 
0.450679 -0.0861392 0 
0.475 -0.086152 0 
CELL_DATA 400
TENSORS sigma float 
501.377 202.119 0 202.119 106.147 0 0 0 119.507 
474.466 111 0 111 36.308 0 0 0 105.004 
457.027 71.9361 0 71.9361 17.4849 0 0 0 99.3076 
449.487 50.1428 0 50.1428 9.76178 0 0 0 96.7566 
447.442 36.0978 0 36.0978 5.88059 0 0 0 95.6371 
448.312 26.339 0 26.339 3.70899 0 0 0 95.2432 
450.678 19.2859 0 19.2859 2.41155 0 0 0 95.231 
453.729 14.0869 0 14.0869 1.60006 0 0 0 95.4158 
456.985 10.2236 0 10.2236 1.07437 0 0 0 95.6933 
460.164 7.35051 0 7.35051 0.724037 0 0 0 96.0028 
463.107 5.22252 0 5.22252 0.485142 0 0 0 96.3098 
465.733 3.65828 0 3.65828 0.31929 0 0 0 96.5949 
468.006 2.52031 0 2.52031 0.202659 0 0 0 96.8485 
469.925 1.7031 0 1.7031 0.120024 0 0 0 97.0665 
471.505 1.12517 0 1.12517 0.0613806 0 0 0 97.2484 
472.768 0.723451 0 0.723451 0.0200026 0 0 0 97.3953 
473.74 0.448979 0 0.448979 -0.00870236 0 0 0 97.5092 
474.445 0.263412 0 0.263412 -0.0278714 0 0 0 97.5923 
474.903 0.136145 0 0.136145 -0.0395931 0 0 0 97.6465 
475.128 0.0418314 0 0.0418314 -0.0451488 0 0 0 97.6733 
430.941 144.924 0 144.924 133.979 0 0 0 129.324 
460.404 114.821 0 114.821 66.2181 0 0 0 114.101 
462.668 79.376 0 79.376 35.0538 0 0 0 106.431 
460.271 54.7756 0 54.7756 20.4756 0 0 0 102.27 
458.605 38.2102 0 38.2102 12.8733 0 0 0 99.9047 
458.358 26.7988 0 26.7988 8.50247 0 0 0 98.5444 
459.226 18.7691 0 18.7691 5.79603 0 0 0 97.7779 
460.795 13.0484 0 13.0484 4.02549 0 0 0 97.3724 
462.724 8.9553 0 8.9553 2.81973 0 0 0 97.1879 
464.769 6.03333 0 6.03333 1.97493 0 0 0 97.1367 
466.768 3.96348 0 3.96348 1.37174 0 0 0 97.1633 
468.621 2.51618 0 2.51618 0.936207 0 0 0 97.2315 
470.272 1.52311 0 1.52311 0.620187 0 0 0 97.3185 
471.696 0.859766 0 0.859766 0.39098 0 0 0 97.4097 
472.888 0.433702 0 0.433702 0.225652 0 0 0 97.4961 
473.853 0.176279 0 0.176279 0.107783 0 0 0 97.5722 
474.604 0.0365249 0 0.0365249 0.0255345 0 0 0 97.635 
475.153 -0.0235807 0 -0.0235807 -0.0295397 0 0 0 97.6829 
475.511 -0.0328491 0 -0.0328491 -0.0632452 0 0 0 97.715 
475.688 -0.0139521 0 -0.0139521 -0.0792211 0 0 0 97.7312 
409.881 112.078 0 112.078 133.568 0 0 0 130.604 
439.963 99.4129 0 99.4129 84.9062 0 0 0 119.962 
455.377 76.4755 0 76.4755 51.8084 0 0 0 112.215 
461.126 55.3581 0 55.3581 32.408 0 0 0 107.112 
463.195 39.0825 0 39.0825 21.0545 0 0 0 103.789 
464.268 27.183 0 27.183 14.1298 0 0 0 101.613 
465.269 18.6306 0 18.6306 9.6996 0 0 0 100.18 
466.422 12.5344 0 12.5344 6.74466 0 0 0 99.24 
467.712 8.22416 0 8.22416 4.70932 0 0 0 98.629 
469.059 5.21004 0 5.21004 3.2754 0 0 0 98.2403 
470.383 3.13491 0 3.13491 2.25076 0 0 0 98.0014 
471.624 1.73727 0 1.73727 1.51324 0 0 0 97.8625 
472.74 0.825252 0 0.825252 0.98147 0 0 0 97.7891 
473.713 0.258168 0 0.258168 0.599189 0 0 0 97.7573 
474.533 -0.0667238 0 -0.0667238 0.326394 0 0 0 97.7504 
475.202 -0.22404 0 -0.22404 0.134208 0 0 0 97.757 
475.725 -0.267669 0 -0.267669 0.00172992 0 0 0 97.7694 
476.108 -0.236455 0 -0.236455 -0.0859646 0 0 0 97.7823 
476.359 -0.15866 0 -0.15866 -0.139124 0 0 0 97.7926 
476.483 -0.0555555 0 -0.0555555 -0.16416 0 0 0 97.7982 
401.214 88.7992 0 88.7992 130.75 0 0 0 130.995 
427.268 82.4151 0 82.4151 93.7229 0 0 0 123.049 
446.134 67.9817 0 67.9817 63.7865 0 0 0 116.187 
457.256 51.8794 0 51.8794 42.9221 0 0 0 110.933 
463.332 37.7492 0 37.7492 29.1133 0 0 0 107.094 
466.752 26.5748 0 26.5748 19.9947 0 0 0 104.336 
468.893 18.1806 0 18.1806 13.8687 0 0 0 102.368 
470.434 12.0633 0 12.0633 9.66417 0 0 0 100.969 
471.674 7.7056 0 7.7056 6.72365 0 0 0 99.9795 
472.738 4.66763 0 4.66763 4.63907 0 0 0 99.2842 
473.671 2.60072 0 2.60072 3.14944 0 0 0 98.8008 
474.486 1.23757 0 1.23757 2.08186 0 0 0 98.469 
475.19 0.377318 0 0.377318 1.31782 0 0 0 98.245 
475.786 -0.128738 0 -0.128738 0.773873 0 0 0 98.0969 
476.279 -0.389213 0 -0.389213 0.390085 0 0 0 98.0014 
476.676 -0.482438 0 -0.482438 0.123013 0 0 0 97.9417 
476.982 -0.46425 0 -0.46425 -0.058785 0 0 0 97.9058 
477.205 -0.374127 0 -0.374127 -0.177708 0 0 0 97.8852 
477.351 -0.24006 0 -0.24006 -0.249085 0 0 0 97.8743 
477.422 -0.0824788 0 -0.0824788 -0.282478 0 0 0 97.8697 
397.08 70.4625 0 70.4625 128.427 0 0 0 131.29 
419.676 66.7938 0 66.7938 98.2051 0 0 0 124.868 
438.634 57.4765 0 57.4765 71.7402 0 0 0 118.859 
452.284 45.7553 0 45.7553 51.1592 0 0 0 113.786 
461.272 34.3749 0 34.3749 36.1511 0 0 0 109.746 
466.986 24.6912 0 24.6912 25.484 0 0 0 106.631 
470.624 17.0506 0 17.0506 17.9394 0 0 0 104.272 
472.993 11.3078 0 11.3078 12.5833 0 0 0 102.507 
474.584 7.14411 0 7.14411 8.75986 0 0 0 101.198 
475.687 4.21875 0 4.21875 6.01958 0 0 0 100.237 
476.472 2.22885 0 2.22885 4.05332 0 0 0 99.5365 
477.04 0.926736 0 0.926736 2.64513 0 0 0 99.0313 
477.457 0.11918 0 0.11918 1.64153 0 0 0 98.6706 
477.763 -0.339865 0 -0.339865 0.931762 0 0 0 98.4162 
477.988 -0.558172 0 -0.558172 0.435204 0 0 0 98.2393 
478.151 -0.613674 0 -0.613674 0.0929895 0 0 0 98.1183 
478.266 -0.561749 0 -0.561749 -0.137585 0 0 0 98.0376 
478.345 -0.441231 0 -0.441231 -0.286923 0 0 0 97.9858 
478.393 -0.279283 0 -0.279283 -0.375796 0 0 0 97.9553 
478.417 -0.0953771 0 -0.0953771 -0.417133 0 0 0 97.9412 
394.941 55.0005 0 55.0005 126.741 0 0 0 131.552 
415.025 52.7166 0 52.7166 100.709 0 0 0 126.043 
433.179 46.5551 0 46.5551 76.9974 0 0 0 120.679 
447.775 38.2105 0 38.2105 57.2723 0 0 0 115.867 
458.542 29.5011 0 29.5011 41.8498 0 0 0 111.794 
466.052 21.6343 0 21.6343 30.2177 0 0 0 108.479 
471.109 15.1431 0 15.1431 21.6067 0 0 0 105.854 
474.434 10.1081 0 10.1081 15.2913 0 0 0 103.813 
476.573 6.38028 0 6.38028 10.6842 0 0 0 102.251 
477.914 3.72776 0 3.72776 7.33817 0 0 0 101.069 
478.726 1.91241 0 1.91241 4.92041 0 0 0 100.185 
479.19 0.724201 0 0.724201 3.18478 0 0 0 99.5304 
479.43 -0.00810375 0 -0.00810375 1.94907 0 0 0 99.0508 
479.531 -0.417376 0 -0.417376 1.07823 0 0 0 98.7032 
479.55 -0.603166 0 -0.603166 0.472228 0 0 0 98.4544 
479.524 -0.638028 0 -0.638028 0.0573635 0 0 0 98.2792 
479.481 -0.573656 0 -0.573656 -0.220096 0 0 0 98.1587 
479.436 -0.446241 0 -0.446241 -0.398468 0 0 0 98.0791 
479.402 -0.280966 0 -0.280966 -0.503928 0 0 0 98.031 
479.383 -0.0957246 0 -0.0957246 -0.552758 0 0 0 98.0084 
393.786 41.3339 0 41.3339 125.559 0 0 0 131.771 
412.117 39.866 0 39.866 102.204 0 0 0 126.835 
429.382 35.7817 0 35.7817 80.4833 0 0 0 121.927 
444.2 29.9955 0 29.9955 61.6515 0 0 0 117.353 
455.955 23.6505 0 23.6505 46.2052 0 0 0 113.317 
464.713 17.6562 0 17.6562 34.0246 0 0 0 109.902 
470.918 12.5261 0 12.5261 24.6712 0 0 0 107.104 
475.121 8.4352 0 8.4352 17.6181 0 0 0 104.866 
477.841 5.3456 0 5.3456 12.3705 0 0 0 103.112 
479.505 3.11725 0 3.11725 8.50926 0 0 0 101.758 
480.442 1.57932 0 1.57932 5.69734 0 0 0 100.726 
480.896 0.568521 0 0.568521 3.67089 0 0 0 99.9498 
481.045 -0.0543855 0 -0.0543855 2.22677 0 0 0 99.372 
481.011 -0.40042 0 -0.40042 1.21034 0 0 0 98.9469 
480.882 -0.554142 0 -0.554142 0.505106 0 0 0 98.6381 
480.714 -0.577787 0 -0.577787 0.0242972 0 0 0 98.4173 
480.546 -0.515927 0 -0.515927 -0.295691 0 0 0 98.2633 
480.404 -0.399827 0 -0.399827 -0.500353 0 0 0 98.1602 