# vtk DataFile Version 2.0
Generated by inSilico's base::io::vtk::LegacyWriter
ASCII
DATASET UNSTRUCTURED_GRID
POINTS 441 float
0 0 0 
0.05 0 0 
0.1 0 0 
0.15 0 0 
0.2 0 0 
0.25 0 0 
0.3 0 0 
0.35 0 0 
0.4 0 0 
0.45 0 0 
0.5 0 0 
0.55 0 0 
0.6 0 0 
0.65 0 0 
0.7 0 0 
0.75 0 0 
0.8 0 0 
0.85 0 0 
0.9 0 0 
0.95 0 0 
1 0 0 
0 0.05 0 
0.05 0.05 0 
0.1 0.05 0 
0.15 0.05 0 
0.2 0.05 0 
0.25 0.05 0 
0.3 0.05 0 
0.35 0.05 0 
0.4 0.05 0 
0.45 0.05 0 
0.5 0.05 0 
0.55 0.05 0 
0.6 0.05 0 
0.65 0.05 0 
0.7 0.05 0 
0.75 0.05 0 
0.8 0.05 0 
0.85 0.05 0 
0.9 0.05 0 
0.95 0.05 0 
1 0.05 0 
0 0.1 0 
0.05 0.1 0 
0.1 0.1 0 
0.15 0.1 0 
0.2 0.1 0 
0.25 0.1 0 
0.3 0.1 0 
0.35 0.1 0 
0.4 0.1 0 
0.45 0.1 0 
0.5 0.1 0 
0.55 0.1 0 
0.6 0.1 0 
0.65 0.1 0 
0.7 0.1 0 
0.75 0.1 0 
0.8 0.1 0 
0.85 0.1 0 
0.9 0.1 0 
0.95 0.1 0 
1 0.1 0 
0 0.15 0 
0.05 0.15 0 
0.1 0.15 0 
0.15 0.15 0 
0.2 0.15 0 
0.25 0.15 0 
0.3 0.15 0 
0.35 0.15 0 
0.4 0.15 0 
0.45 0.15 0 
0.5 0.15 0 
0.55 0.15 0 
0.6 0.15 0 
0.65 0.15 0 
0.7 0.15 0 
0.75 0.15 0 
0.8 0.15 0 
0.85 0.15 0 
0.9 0.15 0 
0.95 0.15 0 
1 0.15 0 
0 0.2 0 
0.05 0.2 0 
0.1 0.2 0 
0.15 0.2 0 
0.2 0.2 0 
0.25 0.2 0 
0.3 0.2 0 
0.35 0.2 0 
0.4 0.2 0 
0.45 0.2 0 
0.5 0.2 0 
0.55 0.2 0 
0.6 0.2 0 
0.65 0.2 0 
0.7 0.2 0 
0.75 0.2 0 
0.8 0.2 0 
0.85 0.2 0 
0.9 0.2 0 
0.95 0.2 0 
1 0.2 0 
0 0.25 0 
0.05 0.25 0 
0.1 0.25 0 
0.15 0.25 0 
0.2 0.25 0 
0.25 0.25 0 
0.3 0.25 0 
0.35 0.25 0 
0.4 0.25 0 
0.45 0.25 0 
0.5 0.25 0 
0.55 0.25 0 
0.6 0.25 0 
0.65 0.25 0 
0.7 0.25 0 
0.75 0.25 0 
0.8 0.25 0 
0.85 0.25 0 
0.9 0.25 0 
0.95 0.25 0 
1 0.25 0 
0 0.3 0 
0.05 0.3 0 
0.1 0.3 0 
0.15 0.3 0 
0.2 0.3 0 
0.25 0.3 0 
0.3 0.3 0 
0.35 0.3 0 
0.4 0.3 0 
0.45 0.3 0 
0.5 0.3 0 
0.55 0.3 0 
0.6 0.3 0 
0.65 0.3 0 
0.7 0.3 0 
0.75 0.3 0 
0.8 0.3 0 
0.85 0.3 0 
0.9 0.3 0 
0.95 0.3 0 
1 0.3 0 
0 0.35 0 
0.05 0.35 0 
0.1 0.35 0 
0.15 0.35 0 
0.2 0.35 0 
0.25 0.35 0 
0.3 0.35 0 
0.35 0.35 0 
0.4 0.35 0 
0.45 0.35 0 
0.5 0.35 0 
0.55 0.35 0 
0.6 0.35 0 
0.65 0.35 0 
0.7 0.35 0 
0.75 0.35 0 
0.8 0.35 0 
0.85 0.35 0 
0.9 0.35 0 
0.95 0.35 0 
1 0.35 0 
0 0.4 0 
0.05 0.4 0 
0.1 0.4 0 
0.15 0.4 0 
0.2 0.4 0 
0.25 0.4 0 
0.3 0.4 0 
0.35 0.4 0 
0.4 0.4 0 
0.45 0.4 0 
0.5 0.4 0 
0.55 0.4 0 
0.6 0.4 0 
0.65 0.4 0 
0.7 0.4 0 
0.75 0.4 0 
0.8 0.4 0 
0.85 0.4 0 
0.9 0.4 0 
0.95 0.4 0 
1 0.4 0 
0 0.45 0 
0.05 0.45 0 
0.1 0.45 0 
0.15 0.45 0 
0.2 0.45 0 
0.25 0.45 0 
0.3 0.45 0 
0.35 0.45 0 
0.4 0.45 0 
0.45 0.45 0 
0.5 0.45 0 
0.55 0.45 0 
0.6 0.45 0 
0.65 0.45 0 
0.7 0.45 0 
0.75 0.45 0 
0.8 0.45 0 
0.85 0.45 0 
0.9 0.45 0 
0.95 0.45 0 
1 0.45 0 
0 0.5 0 
0.05 0.5 0 
0.1 0.5 0 
0.15 0.5 0 
0.2 0.5 0 
0.25 0.5 0 
0.3 0.5 0 
0.35 0.5 0 
0.4 0.5 0 
0.45 0.5 0 
0.5 0.5 0 
0.55 0.5 0 
0.6 0.5 0 
0.65 0.5 0 
0.7 0.5 0 
0.75 0.5 0 
0.8 0.5 0 
0.85 0.5 0 
0.9 0.5 0 
0.95 0.5 0 
1 0.5 0 
0 0.55 0 
0.05 0.55 0 
0.1 0.55 0 
0.15 0.55 0 
0.2 0.55 0 
0.25 0.55 0 
0.3 0.55 0 
0.35 0.55 0 
0.4 0.55 0 
0.45 0.55 0 
0.5 0.55 0 
0.55 0.55 0 
0.6 0.55 0 
0.65 0.55 0 
0.7 0.55 0 
0.75 0.55 0 
0.8 0.55 0 
0.85 0.55 0 
0.9 0.55 0 
0.95 0.55 0 
1 0.55 0 
0 0.6 0 
0.05 0.6 0 
0.1 0.6 0 
0.15 0.6 0 
0.2 0.6 0 
0.25 0.6 0 
0.3 0.6 0 
0.35 0.6 0 
0.4 0.6 0 
0.45 0.6 0 
0.5 0.6 0 
0.55 0.6 0 
0.6 0.6 0 
0.65 0.6 0 
0.7 0.6 0 
0.75 0.6 0 
0.8 0.6 0 
0.85 0.6 0 
0.9 0.6 0 
0.95 0.6 0 
1 0.6 0 
0 0.65 0 
0.05 0.65 0 
0.1 0.65 0 
0.15 0.65 0 
0.2 0.65 0 
0.25 0.65 0 
0.3 0.65 0 
0.35 0.65 0 
0.4 0.65 0 
0.45 0.65 0 
0.5 0.65 0 
0.55 0.65 0 
0.6 0.65 0 
0.65 0.65 0 
0.7 0.65 0 
0.75 0.65 0 
0.8 0.65 0 
0.85 0.65 0 
0.9 0.65 0 
0.95 0.65 0 
1 0.65 0 
0 0.7 0 
0.05 0.7 0 
0.1 0.7 0 
0.15 0.7 0 
0.2 0.7 0 
0.25 0.7 0 
0.3 0.7 0 
0.35 0.7 0 
0.4 0.7 0 
0.45 0.7 0 
0.5 0.7 0 
0.55 0.7 0 
0.6 0.7 0 
0.65 0.7 0 
0.7 0.7 0 
0.75 0.7 0 
0.8 0.7 0 
0.85 0.7 0 
0.9 0.7 0 
0.95 0.7 0 
1 0.7 0 
0 0.75 0 
0.05 0.75 0 
0.1 0.75 0 
0.15 0.75 0 
0.2 0.75 0 
0.25 0.75 0 
0.3 0.75 0 
0.35 0.75 0 
0.4 0.75 0 
0.45 0.75 0 
0.5 0.75 0 
0.55 0.75 0 
0.6 0.75 0 
0.65 0.75 0 
0.7 0.75 0 
0.75 0.75 0 
0.8 0.75 0 
0.85 0.75 0 
0.9 0.75 0 
0.95 0.75 0 
1 0.75 0 
0 0.8 0 
0.05 0.8 0 
0.1 0.8 0 
0.15 0.8 0 
0.2 0.8 0 
0.25 0.8 0 
0.3 0.8 0 
0.35 0.8 0 
0.4 0.8 0 
0.45 0.8 0 
0.5 0.8 0 
0.55 0.8 0 
0.6 0.8 0 
0.65 0.8 0 
0.7 0.8 0 
0.75 0.8 0 
0.8 0.8 0 
0.85 0.8 0 
0.9 0.8 0 
0.95 0.8 0 
1 0.8 0 
0 0.85 0 
0.05 0.85 0 
0.1 0.85 0 
0.15 0.85 0 
0.2 0.85 0 
0.25 0.85 0 
0.3 0.85 0 
0.35 0.85 0 
0.4 0.85 0 
0.45 0.85 0 
0.5 0.85 0 
0.55 0.85 0 
0.6 0.85 0 
0.65 0.85 0 
0.7 0.85 0 
0.75 0.85 0 
0.8 0.85 0 
0.85 0.85 0 
0.9 0.85 0 
0.95 0.85 0 
1 0.85 0 
0 0.9 0 
0.05 0.9 0 
0.1 0.9 0 
0.15 0.9 0 
0.2 0.9 0 
0.25 0.9 0 
0.3 0.9 0 
0.35 0.9 0 
0.4 0.9 0 
0.45 0.9 0 
0.5 0.9 0 
0.55 0.9 0 
0.6 0.9 0 
0.65 0.9 0 
0.7 0.9 0 
0.75 0.9 0 
0.8 0.9 0 
0.85 0.9 0 
0.9 0.9 0 
0.95 0.9 0 
1 0.9 0 
0 0.95 0 
0.05 0.95 0 
0.1 0.95 0 
0.15 0.95 0 
0.2 0.95 0 
0.25 0.95 0 
0.3 0.95 0 
0.35 0.95 0 
0.4 0.95 0 
0.45 0.95 0 
0.5 0.95 0 
0.55 0.95 0 
0.6 0.95 0 
0.65 0.95 0 
0.7 0.95 0 
0.75 0.95 0 
0.8 0.95 0 
0.85 0.95 0 
0.9 0.95 0 
0.95 0.95 0 
1 0.95 0 
0 1 0 
0.05 1 0 
0.1 1 0 
0.15 1 0 
0.2 1 0 
0.25 1 0 
0.3 1 0 
0.35 1 0 
0.4 1 0 
0.45 1 0 
0.5 1 0 
0.55 1 0 
0.6 1 0 
0.65 1 0 
0.7 1 0 
0.75 1 0 
0.8 1 0 
0.85 1 0 
0.9 1 0 
0.95 1 0 
1 1 0 
CELLS 400 2000
4 0 1 22 21 
4 1 2 23 22 
4 2 3 24 23 
4 3 4 25 24 
4 4 5 26 25 
4 5 6 27 26 
4 6 7 28 27 
4 7 8 29 28 
4 8 9 30 29 
4 9 10 31 30 
4 10 11 32 31 
4 11 12 33 32 
4 12 13 34 33 
4 13 14 35 34 
4 14 15 36 35 
4 15 16 37 36 
4 16 17 38 37 
4 17 18 39 38 
4 18 19 40 39 
4 19 20 41 40 
4 21 22 43 42 
4 22 23 44 43 
4 23 24 45 44 
4 24 25 46 45 
4 25 26 47 46 
4 26 27 48 47 
4 27 28 49 48 
4 28 29 50 49 
4 29 30 51 50 
4 30 31 52 51 
4 31 32 53 52 
4 32 33 54 53 
4 33 34 55 54 
4 34 35 56 55 
4 35 36 57 56 
4 36 37 58 57 
4 37 38 59 58 
4 38 39 60 59 
4 39 40 61 60 
4 40 41 62 61 
4 42 43 64 63 
4 43 44 65 64 
4 44 45 66 65 
4 45 46 67 66 
4 46 47 68 67 
4 47 48 69 68 
4 48 49 70 69 
4 49 50 71 70 
4 50 51 72 71 
4 51 52 73 72 
4 52 53 74 73 
4 53 54 75 74 
4 54 55 76 75 
4 55 56 77 76 
4 56 57 78 77 
4 57 58 79 78 
4 58 59 80 79 
4 59 60 81 80 
4 60 61 82 81 
4 61 62 83 82 
4 63 64 85 84 
4 64 65 86 85 
4 65 66 87 86 
4 66 67 88 87 
4 67 68 89 88 
4 68 69 90 89 
4 69 70 91 90 
4 70 71 92 91 
4 71 72 93 92 
4 72 73 94 93 
4 73 74 95 94 
4 74 75 96 95 
4 75 76 97 96 
4 76 77 98 97 
4 77 78 99 98 
4 78 79 100 99 
4 79 80 101 100 
4 80 81 102 101 
4 81 82 103 102 
4 82 83 104 103 
4 84 85 106 105 
4 85 86 107 106 
4 86 87 108 107 
4 87 88 109 108 
4 88 89 110 109 
4 89 90 111 110 
4 90 91 112 111 
4 91 92 113 112 
4 92 93 114 113 
4 93 94 115 114 
4 94 95 116 115 
4 95 96 117 116 
4 96 97 118 117 
4 97 98 119 118 
4 98 99 120 119 
4 99 100 121 120 
4 100 101 122 121 
4 101 102 123 122 
4 102 103 124 123 
4 103 104 125 124 
4 105 106 127 126 
4 106 107 128 127 
4 107 108 129 128 
4 108 109 130 129 
4 109 110 131 130 
4 110 111 132 131 
4 111 112 133 132 
4 112 113 134 133 
4 113 114 135 134 
4 114 115 136 135 
4 115 116 137 136 
4 116 117 138 137 
4 117 118 139 138 
4 118 119 140 139 
4 119 120 141 140 
4 120 121 142 141 
4 121 122 143 142 
4 122 123 144 143 
4 123 124 145 144 
4 124 125 146 145 
4 126 127 148 147 
4 127 128 149 148 
4 128 129 150 149 
4 129 130 151 150 
4 130 131 152 151 
4 131 132 153 152 
4 132 133 154 153 
4 133 134 155 154 
4 134 135 156 155 
4 135 136 157 156 
4 136 137 158 157 
4 137 138 159 158 
4 138 139 160 159 
4 139 140 161 160 
4 140 141 162 161 
4 141 142 163 162 
4 142 143 164 163 
4 143 144 165 164 
4 144 145 166 165 
4 145 146 167 166 
4 147 148 169 168 
4 148 149 170 169 
4 149 150 171 170 
4 150 151 172 171 
4 151 152 173 172 
4 152 153 174 173 
4 153 154 175 174 
4 154 155 176 175 
4 155 156 177 176 
4 156 157 178 177 
4 157 158 179 178 
4 158 159 180 179 
4 159 160 181 180 
4 160 161 182 181 
4 161 162 183 182 
4 162 163 184 183 
4 163 164 185 184 
4 164 165 186 185 
4 165 166 187 186 
4 166 167 188 187 
4 168 169 190 189 
4 169 170 191 190 
4 170 171 192 191 
4 171 172 193 192 
4 172 173 194 193 
4 173 174 195 194 
4 174 175 196 195 
4 175 176 197 196 
4 176 177 198 197 
4 177 178 199 198 
4 178 179 200 199 
4 179 180 201 200 
4 180 181 202 201 
4 181 182 203 202 
4 182 183 204 203 
4 183 184 205 204 
4 184 185 206 205 
4 185 186 207 206 
4 186 187 208 207 
4 187 188 209 208 
4 189 190 211 210 
4 190 191 212 211 
4 191 192 213 212 
4 192 193 214 213 
4 193 194 215 214 
4 194 195 216 215 
4 195 196 217 216 
4 196 197 218 217 
4 197 198 219 218 
4 198 199 220 219 
4 199 200 221 220 
4 200 201 222 221 
4 201 202 223 222 
4 202 203 224 223 
4 203 204 225 224 
4 204 205 226 225 
4 205 206 227 226 
4 206 207 228 227 
4 207 208 229 228 
4 208 209 230 229 
4 210 211 232 231 
4 211 212 233 232 
4 212 213 234 233 
4 213 214 235 234 
4 214 215 236 235 
4 215 216 237 236 
4 216 217 238 237 
4 217 218 239 238 
4 218 219 240 239 
4 219 220 241 240 
4 220 221 242 241 
4 221 222 243 242 
4 222 223 244 243 
4 223 224 245 244 
4 224 225 246 245 
4 225 226 247 246 
4 226 227 248 247 
4 227 228 249 248 
4 228 229 250 249 
4 229 230 251 250 
4 231 232 253 252 
4 232 233 254 253 
4 233 234 255 254 
4 234 235 256 255 
4 235 236 257 256 
4 236 237 258 257 
4 237 238 259 258 
4 238 239 260 259 
4 239 240 261 260 
4 240 241 262 261 
4 241 242 263 262 
4 242 243 264 263 
4 243 244 265 264 
4 244 245 266 265 
4 245 246 267 266 
4 246 247 268 267 
4 247 248 269 268 
4 248 249 270 269 
4 249 250 271 270 
4 250 251 272 271 
4 252 253 274 273 
4 253 254 275 274 
4 254 255 276 275 
4 255 256 277 276 
4 256 257 278 277 
4 257 258 279 278 
4 258 259 280 279 
4 259 260 281 280 
4 260 261 282 281 
4 261 262 283 282 
4 262 263 284 283 
4 263 264 285 284 
4 264 265 286 285 
4 265 266 287 286 
4 266 267 288 287 
4 267 268 289 288 
4 268 269 290 289 
4 269 270 291 290 
4 270 271 292 291 
4 271 272 293 292 
4 273 274 295 294 
4 274 275 296 295 
4 275 276 297 296 
4 276 277 298 297 
4 277 278 299 298 
4 278 279 300 299 
4 279 280 301 300 
4 280 281 302 301 
4 281 282 303 302 
4 282 283 304 303 
4 283 284 305 304 
4 284 285 306 305 
4 285 286 307 306 
4 286 287 308 307 
4 287 288 309 308 
4 288 289 310 309 
4 289 290 311 310 
4 290 291 312 311 
4 291 292 313 312 
4 292 293 314 313 
4 294 295 316 315 
4 295 296 317 316 
4 296 297 318 317 
4 297 298 319 318 
4 298 299 320 319 
4 299 300 321 320 
4 300 301 322 321 
4 301 302 323 322 
4 302 303 324 323 
4 303 304 325 324 
4 304 305 326 325 
4 305 306 327 326 
4 306 307 328 327 
4 307 308 329 328 
4 308 309 330 329 
4 309 310 331 330 
4 310 311 332 331 
4 311 312 333 332 
4 312 313 334 333 
4 313 314 335 334 
4 315 316 337 336 
4 316 317 338 337 
4 317 318 339 338 
4 318 319 340 339 
4 319 320 341 340 
4 320 321 342 341 
4 321 322 343 342 
4 322 323 344 343 
4 323 324 345 344 
4 324 325 346 345 
4 325 326 347 346 
4 326 327 348 347 
4 327 328 349 348 
4 328 329 350 349 
4 329 330 351 350 
4 330 331 352 351 
4 331 332 353 352 
4 332 333 354 353 
4 333 334 355 354 
4 334 335 356 355 
4 336 337 358 357 
4 337 338 359 358 
4 338 339 360 359 
4 339 340 361 360 
4 340 341 362 361 
4 341 342 363 362 
4 342 343 364 363 
4 343 344 365 364 
4 344 345 366 365 
4 345 346 367 366 
4 346 347 368 367 
4 347 348 369 368 
4 348 349 370 369 
4 349 350 371 370 
4 350 351 372 371 
4 351 352 373 372 
4 352 353 374 373 
4 353 354 375 374 
4 354 355 376 375 
4 355 356 377 376 
4 357 358 379 378 
4 358 359 380 379 
4 359 360 381 380 
4 360 361 382 381 
4 361 362 383 382 
4 362 363 384 383 
4 363 364 385 384 
4 364 365 386 385 
4 365 366 387 386 
4 366 367 388 387 
4 367 368 389 388 
4 368 369 390 389 
4 369 370 391 390 
4 370 371 392 391 
4 371 372 393 392 
4 372 373 394 393 
4 373 374 395 394 
4 374 375 396 395 
4 375 376 397 396 
4 376 377 398 397 
4 378 379 400 399 
4 379 380 401 400 
4 380 381 402 401 
4 381 382 403 402 
4 382 383 404 403 
4 383 384 405 404 
4 384 385 406 405 
4 385 386 407 406 
4 386 387 408 407 
4 387 388 409 408 
4 388 389 410 409 
4 389 390 411 410 
4 390 391 412 411 
4 391 392 413 412 
4 392 393 414 413 
4 393 394 415 414 
4 394 395 416 415 
4 395 396 417 416 
4 396 397 418 417 
4 397 398 419 418 
4 399 400 421 420 
4 400 401 422 421 
4 401 402 423 422 
4 402 403 424 423 
4 403 404 425 424 
4 404 405 426 425 
4 405 406 427 426 
4 406 407 428 427 
4 407 408 429 428 
4 408 409 430 429 
4 409 410 431 430 
4 410 411 432 431 
4 411 412 433 432 
4 412 413 434 433 
4 413 414 435 434 
4 414 415 436 435 
4 415 416 437 436 
4 416 417 438 437 
4 417 418 439 438 
4 418 419 440 439 
CELL_TYPES 400
9
9
9
9
9
9
9
9
9
9
9
9
9
9
9
9
9
9
9
9
9
9
9
9
9
9
9
9
9
9
9
9
9
9
9
9
9
9
9
9
9
9
9
9
9
9
9
9
9
9
9
9
9
9
9
9
9
9
9
9
9
9
9
9
9
9
9
9
9
9
9
9
9
9
9
9
9
9
9
9
9
9
9
9
9
9
9
9
9
9
9
9
9
9
9
9
9
9
9
9
9
9
9
9
9
9
9
9
9
9
9
9
9
9
9
9
9
9
9
9
9
9
9
9
9
9
9
9
9
9
9
9
9
9
9
9
9
9
9
9
9
9
9
9
9
9
9
9
9
9
9
9
9
9
9
9
9
9
9
9
9
9
9
9
9
9
9
9
9
9
9
9
9
9
9
9
9
9
9
9
9
9
9
9
9
9
9
9
9
9
9
9
9
9
9
9
9
9
9
9
9
9
9
9
9
9
9
9
9
9
9
9
9
9
9
9
9
9
9
9
9
9
9
9
9
9
9
9
9
9
9
9
9
9
9
9
9
9
9
9
9
9
9
9
9
9
9
9
9
9
9
9
9
9
9
9
9
9
9
9
9
9
9
9
9
9
9
9
9
9
9
9
9
9
9
9
9
9
9
9
9
9
9
9
9
9
9
9
9
9
9
9
9
9
9
9
9
9
9
9
9
9
9
9
9
9
9
9
9
9
9
9
9
9
9
9
9
9
9
9
9
9
9
9
9
9
9
9
9
9
9
9
9
9
9
9
9
9
9
9
9
9
9
9
9
9
9
9
9
9
9
9
9
9
9
9
9
9
9
9
9
9
9
9
9
9
9
9
9
9
9
9
9
9
9
9
9
9
9
9
9
9
9
9
9
9
9
9
9
9
9
9
9
9
9
9
9
9
9
9
POINT_DATA 441
VECTORS disp float 
0 0 0 
0.0152125 0.0146118 0 
0.0268341 0.0229565 0 
0.0375861 0.0287306 0 
0.0480679 0.0329656 0 
0.0584975 0.036137 0 
0.0689726 0.0385278 0 
0.0795397 0.0403301 0 
0.090219 0.0416831 0 
0.101016 0.0426919 0 
0.111927 0.0434374 0 
0.122944 0.0439822 0 
0.134057 0.0443754 0 
0.145253 0.044655 0 
0.156521 0.0448505 0 
0.167848 0.0449845 0 
0.179223 0.0450743 0 
0.190636 0.0451324 0 
0.202076 0.0451679 0 
0.213533 0.0451869 0 
0.225 0.0451928 0 
0 0 0 
0.0109096 0.0103794 0 
0.0228414 0.018529 0 
0.0343245 0.0244209 0 
0.0454744 0.02874 0 
0.0564561 0.0319467 0 
0.0673769 0.0343399 0 
0.0783005 0.0361252 0 
0.0892632 0.037451 0 
0.100284 0.0384281 0 
0.111371 0.0391411 0 
0.122526 0.0396549 0 
0.133745 0.0400197 0 
0.145024 0.0402744 0 
0.156354 0.0404487 0 
0.167729 0.0405652 0 
0.17914 0.0406408 0 
0.19058 0.0406882 0 
0.202042 0.0407163 0 
0.213517 0.0407308 0 
0.225 0.0407353 0 
0 0 0 
0.00980944 0.00790966 0 
0.0207574 0.0149256 0 
0.032074 0.0204461 0 
0.0433919 0.0246375 0 
0.054645 0.0277878 0 
0.0658505 0.0301436 0 
0.0770386 0.0318954 0 
0.0882343 0.0331885 0 
0.0994545 0.0341338 0 
0.110709 0.0348165 0 
0.122003 0.0353026 0 
0.133336 0.0356427 0 
0.144707 0.0358759 0 
0.156112 0.0360319 0 
0.167547 0.0361334 0 
0.179008 0.0361972 0 
0.190488 0.0362355 0 
0.201984 0.0362573 0 
0.21349 0.0362681 0 
0.225 0.0362714 0 
0 0 0 
0.00939621 0.0062537 0 
0.0197366 0.0120597 0 
0.0306729 0.0169296 0 
0.0418782 0.020788 0 
0.0531825 0.0237574 0 
0.0645197 0.026004 0 
0.0758709 0.027682 0 
0.0872345 0.0289201 0 
0.0986141 0.0298217 0 
0.110013 0.0304688 0 
0.121434 0.0309254 0 
0.132877 0.0312411 0 
0.144341 0.0314543 0 
0.155826 0.0315942 0 
0.167327 0.0316829 0 
0.178844 0.0317367 0 
0.190373 0.0317678 0 
0.20191 0.0317845 0 
0.213454 0.0317924 0 
0.225 0.0317946 0 
0 0 0 
0.00920253 0.00499465 0 
0.0191973 0.00972045 0 
0.029813 0.0138435 0 
0.0408267 0.0172318 0 
0.0520666 0.0199086 0 
0.0634295 0.0219675 0 
0.0748599 0.0235196 0 
0.0863298 0.0246695 0 
0.0978254 0.0255073 0 
0.10934 0.026107 0 
0.120869 0.0265277 0 
0.13241 0.0268164 0 
0.143962 0.027009 0 
0.155523 0.0271334 0 
0.167092 0.0272105 0 
0.178666 0.027256 0 
0.190246 0.0272811 0 
0.201828 0.0272938 0 
0.213414 0.0272995 0 
0.225 0.0273011 0 
0 0 0 
0.00910031 0.0039546 0 
0.0188903 0.00772986 0 
0.0292753 0.0111028 0 
0.0401071 0.013951 0 
0.0512431 0.016254 0 
0.0625746 0.018056 0 
0.0740278 0.0194301 0 
0.0855556 0.0204551 0 
0.0971288 0.0212041 0 
0.108729 0.0217403 0 
0.120345 0.0221157 0 
0.131969 0.0223719 0 
0.143598 0.0225415 0 
0.155229 0.0226498 0 
0.16686 0.0227159 0 
0.178489 0.0227538 0 
0.190118 0.022774 0 
0.201746 0.0227837 0 
0.213373 0.0227878 0 
0.225 0.0227888 0 
0 0 0 
0.00904274 0.00304731 0 
0.0187064 0.00597015 0 
0.0289321 0.00861992 0 
0.0396179 0.0109004 0 
0.0506504 0.0127786 0 
0.0619286 0.0142707 0 
0.0733733 0.0154214 0 
0.0849264 0.0162863 0 
0.0965472 0.0169212 0 
0.108208 0.0173766 0 
0.11989 0.0176953 0 
0.131581 0.0179122 0 
0.143273 0.0180552 0 
0.154963 0.0181458 0 
0.166648 0.0182003 0 
0.178327 0.0182311 0 
0.190001 0.018247 0 
0.20167 0.0182544 0 
0.213336 0.0182572 0 
0.225 0.0182579 0 
0 0 0 
0.00900937 0.0022247 0 
0.0185937 0.00436425 0 
0.0287125 0.00632161 0 
0.0392906 0.00802792 0 
0.0502369 0.00945231 0 
0.0614611 0.0105977 0 
0.0728846 0.0114895 0 
0.0844442 0.0121646 0 
0.0960917 0.0126625 0 
0.107792 0.0130206 0 
0.119521 0.0132713 0 
0.131262 0.0134418 0 
0.143004 0.013554 0 
0.154741 0.0136246 0 
0.16647 0.0136669 0 
0.17819 0.0136904 0 
0.189901 0.0137023 0 
0.201605 0.0137076 0 
0.213304 0.0137096 0 
0.225 0.01371 0 
0 0 0 
0.00899027 0.00145631 0 
0.0185261 0.00285906 0 
0.0285765 0.00414946 0 
0.0390818 0.0052836 0 
0.0499655 0.00623902 0 
0.0611461 0.0070139 0 
0.0725477 0.00762163 0 
0.0841051 0.00808423 0 
0.0957663 0.00842675 0 
0.107491 0.00867365 0 
0.119251 0.00884676 0 
0.131027 0.0089645 0 
0.142804 0.0090418 0 
0.154575 0.0090904 0 
0.166336 0.00911932 0 
0.178086 0.0091353 0 
0.189825 0.00914329 0 
0.201556 0.00914675 0 
0.213279 0.00914797 0 
0.225 0.00914824 0 
0 0 0 
0.00898039 0.000720482 0 
0.01849 0.00141504 0 
0.0285022 0.00205588 0 
0.0389657 0.00262168 0 
0.0498117 0.00310083 0 
0.0609645 0.00349141 0 
0.0723506 0.00379911 0 
0.0839043 0.00403414 0 
0.0955714 0.00420862 0 
0.10731 0.0043346 0 
0.119087 0.00442301 0 
0.130882 0.00448315 0 
0.14268 0.00452262 0 
0.154472 0.0045474 0 
0.166253 0.00456211 0 
0.178022 0.00457021 0 
0.189778 0.00457422 0 
0.201525 0.00457594 0 
0.213264 0.00457653 0 
0.225 0.00457666 0 
0 0 0 
0.00897733 3.3102e-18 0 
0.0184786 7.69455e-18 0 
0.0284786 1.37897e-17 0 
0.0389284 1.36677e-17 0 
0.0497619 8.93112e-18 0 
0.0609053 1.83558e-17 0 
0.0722858 3.27548e-17 0 
0.0838378 3.50638e-17 0 
0.0955065 2.76878e-17 0 
0.107249 2.91185e-17 0 
0.119032 1.77132e-17 0 
0.130834 7.05748e-18 0 
0.142639 2.7986e-18 0 
0.154437 2.30935e-17 0 
0.166225 2.51806e-17 0 
0.178 3.70221e-17 0 
0.189762 3.60734e-17 0 
0.201514 7.84276e-17 0 
0.213259 8.08137e-17 0 
0.225 8.05562e-17 0 
0 0 0 
0.00898039 -0.000720482 0 
0.01849 -0.00141504 0 
0.0285022 -0.00205588 0 
0.0389657 -0.00262168 0 
0.0498117 -0.00310083 0 
0.0609645 -0.00349141 0 
0.0723506 -0.00379911 0 
0.0839043 -0.00403414 0 
0.0955714 -0.00420862 0 
0.10731 -0.0043346 0 
0.119087 -0.00442301 0 
0.130882 -0.00448315 0 
0.14268 -0.00452262 0 
0.154472 -0.0045474 0 
0.166253 -0.00456211 0 
0.178022 -0.00457021 0 
0.189778 -0.00457422 0 
0.201525 -0.00457594 0 
0.213264 -0.00457653 0 
0.225 -0.00457666 0 
0 0 0 
0.00899027 -0.00145631 0 
0.0185261 -0.00285906 0 
0.0285765 -0.00414946 0 
0.0390818 -0.0052836 0 
0.0499655 -0.00623902 0 
0.0611461 -0.0070139 0 
0.0725477 -0.00762163 0 
0.0841051 -0.00808423 0 
0.0957663 -0.00842675 0 
0.107491 -0.00867365 0 
0.119251 -0.00884676 0 
0.131027 -0.0089645 0 
0.142804 -0.0090418 0 
0.154575 -0.0090904 0 
0.166336 -0.00911932 0 
0.178086 -0.0091353 0 
0.189825 -0.00914329 0 
0.201556 -0.00914675 0 
0.213279 -0.00914797 0 
0.225 -0.00914824 0 
0 0 0 
0.00900937 -0.0022247 0 
0.0185937 -0.00436425 0 
0.0287125 -0.00632161 0 
0.0392906 -0.00802792 0 
0.0502369 -0.00945231 0 
0.0614611 -0.0105977 0 
0.0728846 -0.0114895 0 
0.0844442 -0.0121646 0 
0.0960917 -0.0126625 0 
0.107792 -0.0130206 0 
0.119521 -0.0132713 0 
0.131262 -0.0134418 0 
0.143004 -0.013554 0 
0.154741 -0.0136246 0 
0.16647 -0.0136669 0 
0.17819 -0.0136904 0 
0.189901 -0.0137023 0 
0.201605 -0.0137076 0 
0.213304 -0.0137096 0 
0.225 -0.01371 0 
0 0 0 
0.00904274 -0.00304731 0 
0.0187064 -0.00597015 0 
0.0289321 -0.00861992 0 
0.0396179 -0.0109004 0 
0.0506504 -0.0127786 0 
0.0619286 -0.0142707 0 
0.0733733 -0.0154214 0 
0.0849264 -0.0162863 0 
0.0965472 -0.0169212 0 
0.108208 -0.0173766 0 
0.11989 -0.0176953 0 
0.131581 -0.0179122 0 
0.143273 -0.0180552 0 
0.154963 -0.0181458 0 
0.166648 -0.0182003 0 
0.178327 -0.0182311 0 
0.190001 -0.018247 0 
0.20167 -0.0182544 0 
0.213336 -0.0182572 0 
0.225 -0.0182579 0 
0 0 0 
0.00910031 -0.0039546 0 
0.0188903 -0.00772986 0 
0.0292753 -0.0111028 0 
0.0401071 -0.013951 0 
0.0512431 -0.016254 0 
0.0625746 -0.018056 0 
0.0740278 -0.0194301 0 
0.0855556 -0.0204551 0 
0.0971288 -0.0212041 0 
0.108729 -0.0217403 0 
0.120345 -0.0221157 0 
0.131969 -0.0223719 0 
0.143598 -0.0225415 0 
0.155229 -0.0226498 0 
0.16686 -0.0227159 0 
0.178489 -0.0227538 0 
0.190118 -0.022774 0 
0.201746 -0.0227837 0 
0.213373 -0.0227878 0 
0.225 -0.0227888 0 
0 0 0 
0.00920253 -0.00499465 0 
0.0191973 -0.00972045 0 
0.029813 -0.0138435 0 
0.0408267 -0.0172318 0 
0.0520666 -0.0199086 0 
0.0634295 -0.0219675 0 
0.0748599 -0.0235196 0 
0.0863298 -0.0246695 0 
0.0978254 -0.0255073 0 
0.10934 -0.026107 0 
0.120869 -0.0265277 0 
0.13241 -0.0268164 0 
0.143962 -0.027009 0 
0.155523 -0.0271334 0 
0.167092 -0.0272105 0 
0.178666 -0.027256 0 
0.190246 -0.0272811 0 
0.201828 -0.0272938 0 
0.213414 -0.0272995 0 
0.225 -0.0273011 0 
0 0 0 
0.00939621 -0.0062537 0 
0.0197366 -0.0120597 0 
0.0306729 -0.0169296 0 
0.0418782 -0.020788 0 
0.0531825 -0.0237574 0 
0.0645197 -0.026004 0 
0.0758709 -0.027682 0 
0.0872345 -0.0289201 0 
0.0986141 -0.0298217 0 
0.110013 -0.0304688 0 
0.121434 -0.0309254 0 
0.132877 -0.0312411 0 
0.144341 -0.0314543 0 
0.155826 -0.0315942 0 
0.167327 -0.0316829 0 
0.178844 -0.0317367 0 
0.190373 -0.0317678 0 
0.20191 -0.0317845 0 
0.213454 -0.0317924 0 
0.225 -0.0317946 0 
0 0 0 
0.00980944 -0.00790966 0 
0.0207574 -0.0149256 0 
0.032074 -0.0204461 0 
0.0433919 -0.0246375 0 
0.054645 -0.0277878 0 
0.0658505 -0.0301436 0 
0.0770386 -0.0318954 0 
0.0882343 -0.0331885 0 
0.0994545 -0.0341338 0 
0.110709 -0.0348165 0 
0.122003 -0.0353026 0 
0.133336 -0.0356427 0 
0.144707 -0.0358759 0 
0.156112 -0.0360319 0 
0.167547 -0.0361334 0 
0.179008 -0.0361972 0 
0.190488 -0.0362355 0 
0.201984 -0.0362573 0 
0.21349 -0.0362681 0 
0.225 -0.0362714 0 
0 0 0 
0.0109096 -0.0103794 0 
0.0228414 -0.018529 0 
0.0343245 -0.0244209 0 
0.0454744 -0.02874 0 
0.0564561 -0.0319467 0 
0.0673769 -0.0343399 0 
0.0783005 -0.0361252 0 
0.0892632 -0.037451 0 
0.100284 -0.0384281 0 
0.111371 -0.0391411 0 
0.122526 -0.0396549 0 
0.133745 -0.0400197 0 
0.145024 -0.0402744 0 
0.156354 -0.0404487 0 
0.167729 -0.0405652 0 
0.17914 -0.0406408 0 
0.19058 -0.0406882 0 
0.202042 -0.0407163 0 
0.213517 -0.0407308 0 
0.225 -0.0407353 0 
0 0 0 
0.0152125 -0.0146118 0 
0.0268341 -0.0229565 0 
0.0375861 -0.0287306 0 
0.0480679 -0.0329656 0 
0.0584975 -0.036137 0 
0.0689726 -0.0385278 0 
0.0795397 -0.0403301 0 
0.090219 -0.0416831 0 
0.101016 -0.0426919 0 
0.111927 -0.0434374 0 
0.122944 -0.0439822 0 
0.134057 -0.0443754 0 
0.145253 -0.044655 0 
0.156521 -0.0448505 0 
0.167848 -0.0449845 0 
0.179223 -0.0450743 0 
0.190636 -0.0451324 0 
0.202076 -0.0451679 0 
0.213533 -0.0451869 0 
0.225 -0.0451928 0 
CELL_DATA 400
TENSORS sigma float 
275.931 87.1153 0 87.1153 41.2229 0 0 0 76.5472 
246.536 42.3739 0 42.3739 12.8774 0 0 0 64.3747 
230.734 25.5662 0 25.5662 5.91321 0 0 0 59.4224 
223.348 16.9918 0 16.9918 3.25313 0 0 0 57.189 
220.338 11.7977 0 11.7977 1.96256 0 0 0 56.2009 
219.662 8.34161 0 8.34161 1.24601 0 0 0 55.8491 
220.252 5.91994 0 5.91994 0.812794 0 0 0 55.8384 
221.505 4.17599 0 4.17599 0.534916 0 0 0 56.0096 
223.069 2.90492 0 2.90492 0.348818 0 0 0 56.2713 
224.725 1.97713 0 1.97713 0.220197 0 0 0 56.569 
226.344 1.30441 0 1.30441 0.129318 0 0 0 56.87 
227.847 0.823377 0 0.823377 0.0641989 0 0 0 57.155 
229.194 0.486878 0 0.486878 0.0172125 0 0 0 57.4132 
230.362 0.259041 0 0.259041 -0.016714 0 0 0 57.639 
231.346 0.112262 0 0.112262 -0.0410805 0 0 0 57.8305 
232.15 0.0251733 0 0.0251733 -0.0583699 0 0 0 57.9873 
232.779 -0.0188383 0 -0.0188383 -0.0703687 0 0 0 58.1105 
233.241 -0.0327885 0 -0.0327885 -0.0783564 0 0 0 58.2013 
233.544 -0.0270559 0 -0.0270559 -0.0832185 0 0 0 58.2609 
233.694 -0.0102145 0 -0.0102145 -0.0855141 0 0 0 58.2905 
233.892 68.5719 0 68.5719 71.1131 0 0 0 80.0646 
240.83 51.9811 0 51.9811 31.6867 0 0 0 69.3474 
236.805 33.5859 0 33.5859 15.9247 0 0 0 63.9711 
232.11 21.6951 0 21.6951 9.02998 0 0 0 60.9704 
228.941 14.1565 0 14.1565 5.56997 0 0 0 59.251 
227.271 9.22734 0 9.22734 3.62292 0 0 0 58.279 
226.693 5.91844 0 5.91844 2.429 0 0 0 57.7598 
226.834 3.66568 0 3.66568 1.64929 0 0 0 57.5189 
227.41 2.12895 0 2.12895 1.11661 0 0 0 57.4484 
228.221 1.09093 0 1.09093 0.74136 0 0 0 57.4795 
229.132 0.405742 0 0.405742 0.471918 0 0 0 57.5677 
230.052 -0.0281296 0 -0.0281296 0.276547 0 0 0 57.6838 
230.923 -0.28309 0 -0.28309 0.134549 0 0 0 57.8089 
231.709 -0.411476 0 -0.411476 0.0317202 0 0 0 57.9309 
232.392 -0.451304 0 -0.451304 -0.0420698 0 0 0 58.0423 
232.961 -0.430142 0 -0.430142 -0.0942297 0 0 0 58.1386 
233.415 -0.36788 0 -0.36788 -0.130221 0 0 0 58.2173 
233.752 -0.278796 0 -0.278796 -0.154025 0 0 0 58.2768 
233.975 -0.17318 0 -0.17318 -0.168426 0 0 0 58.3168 
234.086 -0.0586608 0 -0.0586608 -0.175197 0 0 0 58.3368 
219.831 54.1618 0 54.1618 74.2978 0 0 0 79.2085 
230.333 47.0543 0 47.0543 45.9484 0 0 0 72.4633 
234.297 34.9424 0 34.9424 27.0982 0 0 0 67.3935 
234.267 24.112 0 24.112 16.4878 0 0 0 64.0381 
233.11 16.0512 0 16.0512 10.462 0 0 0 61.8476 
232.025 10.365 0 10.365 6.86146 0 0 0 60.4209 
231.345 6.4248 0 6.4248 4.58971 0 0 0 59.4992 
231.078 3.72425 0 3.72425 3.08894 0 0 0 58.9148 
231.133 1.90016 0 1.90016 2.06257 0 0 0 58.5572 
231.407 0.696899 0 0.696899 1.34395 0 0 0 58.3515 
231.81 -0.0664471 0 -0.0664471 0.833817 0 0 0 58.2464 
232.273 -0.519199 0 -0.519199 0.469628 0 0 0 58.2065 
232.747 -0.754416 0 -0.754416 0.209888 0 0 0 58.2068 
233.197 -0.839164 0 -0.839164 0.0258487 0 0 0 58.2303 
233.603 -0.821566 0 -0.821566 -0.103058 0 0 0 58.2649 
233.95 -0.735833 0 -0.735833 -0.191832 0 0 0 58.3026 
234.231 -0.605943 0 -0.605943 -0.251459 0 0 0 58.3377 
234.444 -0.448451 0 -0.448451 -0.289882 0 0 0 58.3666 
234.586 -0.274666 0 -0.274666 -0.312615 0 0 0 58.387 
234.657 -0.0924237 0 -0.0924237 -0.323139 0 0 0 58.3975 
213.703 43.282 0 43.282 74.298 0 0 0 78.5587 
223.589 39.6711 0 39.6711 52.9319 0 0 0 73.8443 
230.113 32.0894 0 32.0894 35.5426 0 0 0 69.6286 
233.241 23.7555 0 23.7555 23.5205 0 0 0 66.362 
234.309 16.5529 0 16.5529 15.6629 0 0 0 63.9669 
234.459 10.9628 0 10.9628 10.5344 0 0 0 62.2481 
234.317 6.85548 0 6.85548 7.12262 0 0 0 61.0277 
234.16 3.9413 0 3.9413 4.80012 0 0 0 60.1687 
234.085 1.93566 0 1.93566 3.18805 0 0 0 59.5707 
234.104 0.602799 0 0.602799 2.0541 0 0 0 59.1605 
234.199 -0.240847 0 -0.240847 1.25109 0 0 0 58.8848 
234.345 -0.734288 0 -0.734288 0.682143 0 0 0 58.7045 
234.517 -0.981071 0 -0.981071 0.281009 0 0 0 58.5912 
234.694 -1.05728 0 -1.05728 0.000939584 0 0 0 58.5238 
234.864 -1.01804 0 -1.01804 -0.191821 0 0 0 58.487 
235.014 -0.902589 0 -0.902589 -0.321949 0 0 0 58.4696 
235.14 -0.738353 0 -0.738353 -0.407484 0 0 0 58.4636 
235.236 -0.54407 0 -0.54407 -0.461409 0 0 0 58.4633 
235.302 -0.33234 0 -0.33234 -0.492694 0 0 0 58.4651 
235.335 -0.111688 0 -0.111688 -0.506977 0 0 0 58.4665 
210.653 34.5196 0 34.5196 73.9867 0 0 0 78.2397 
219.525 32.4145 0 32.4145 56.6089 0 0 0 74.5647 
226.598 27.5518 0 27.5518 41.2037 0 0 0 71.0425 
231.29 21.5079 0 21.5079 29.1574 0 0 0 68.0296 
233.984 15.6709 0 15.6709 20.3681 0 0 0 65.6137 
235.36 10.7381 0 10.7381 14.1337 0 0 0 63.7425 
235.984 6.88559 0 6.88559 9.7377 0 0 0 62.3214 
236.22 4.03339 0 4.03339 6.62819 0 0 0 61.2561 
236.274 2.01182 0 2.01182 4.41791 0 0 0 60.4658 
236.253 0.640693 0 0.640693 2.8424 0 0 0 59.8854 
236.208 -0.239826 0 -0.239826 1.72026 0 0 0 59.4639 
236.164 -0.760604 0 -0.760604 0.924948 0 0 0 59.1615 
236.127 -1.024 0 -1.024 0.366302 0 0 0 58.9478 
236.1 -1.10762 0 -1.10762 -0.0210498 0 0 0 58.7993 
236.081 -1.06876 0 -1.06876 -0.285104 0 0 0 58.6981 
236.068 -0.948778 0 -0.948778 -0.461254 0 0 0 58.6307 
236.061 -0.776743 0 -0.776743 -0.575466 0 0 0 58.5872 
236.056 -0.572624 0 -0.572624 -0.646434 0 0 0 58.5603 
236.054 -0.349872 0 -0.349872 -0.687052 0 0 0 58.5449 
236.053 -0.117593 0 -0.117593 -0.705412 0 0 0 58.538 
209.009 27.0382 0 27.0382 73.7267 0 0 0 78.1035 
217.04 25.7033 0 25.7033 58.7491 0 0 0 75.0095 
224.033 22.4987 0 22.4987 44.9492 0 0 0 71.9624 
229.393 18.2201 0 18.2201 33.3566 0 0 0 69.2024 
233.086 13.7608 0 13.7608 24.2268 0 0 0 66.8474 
235.417 9.73236 0 9.73236 17.3072 0 0 0 64.9158 
236.776 6.4146 0 6.4146 12.1694 0 0 0 63.3724 
237.491 3.85652 0 3.85652 8.39548 0 0 0 62.1616 
237.804 1.98691 0 1.98691 5.64226 0 0 0 61.2249 
237.877 0.688491 0 0.688491 3.64623 0 0 0 60.509 
237.812 -0.161826 0 -0.161826 2.21018 0 0 0 59.9678 
237.677 -0.674488 0 -0.674488 1.18724 0 0 0 59.5632 
237.512 -0.940886 0 -0.940886 0.467781 0 0 0 59.2642 
237.341 -1.03285 0 -1.03285 -0.030283 0 0 0 59.046 
237.182 -1.00475 0 -1.00475 -0.368496 0 0 0 58.889 
237.042 -0.896423 0 -0.896423 -0.592823 0 0 0 58.7781 
236.926 -0.736248 0 -0.736248 -0.737222 0 0 0 58.7017 
236.838 -0.543894 0 -0.543894 -0.826222 0 0 0 58.6513 
236.779 -0.332731 0 -0.332731 -0.876763 0 0 0 58.6208 
236.749 -0.111897 0 -0.111897 -0.899474 0 0 0 58.6065 
208.083 20.3692 0 20.3692 73.5463 0 0 0 78.056 
215.496 19.4957 0 19.4957 60.0785 0 0 0 75.3095 
222.256 17.3729 0 17.3729 47.4352 0 0 0 72.5752 
227.86 14.4196 0 14.4196 36.359 0 0 0 70.0166 
232.116 11.1828 0 11.1828 27.183 0 0 0 67.7424 
235.106 8.1136 0 8.1136 19.8829 0 0 0 65.7993 
237.054 5.47774 0 5.47774 14.2355 0 0 0 64.1872 
238.215 3.37491 0 3.37491 9.95184 0 0 0 62.8794 
238.818 1.79564 0 1.79564 6.75165 0 0 0 61.8371 
239.043 0.674457 0 0.674457 4.39253 0 0 0 61.0186 
239.026 -0.0738908 0 -0.0738908 2.67624 0 0 0 60.384 
238.867 -0.533876 0 -0.533876 1.44523 0 0 0 59.8978 
238.633 -0.779539 0 -0.779539 0.576226 0 0 0 59.5298 