# vtk DataFile Version 2.0
Generated by inSilico's base::io::vtk::LegacyWriter
ASCII
DATASET UNSTRUCTURED_GRID
POINTS 441 float
0 0 0 
0.05 0 0 
0.1 0 0 
0.15 0 0 
0.2 0 0 
0.25 0 0 
0.3 0 0 
0.35 0 0 
0.4 0 0 
0.45 0 0 
0.5 0 0 
0.55 0 0 
0.6 0 0 
0.65 0 0 
0.7 0 0 
0.75 0 0 
0.8 0 0 
0.85 0 0 
0.9 0 0 
0.95 0 0 
1 0 0 
0 0.05 0 
0.05 0.05 0 
0.1 0.05 0 
0.15 0.05 0 
0.2 0.05 0 
0.25 0.05 0 
0.3 0.05 0 
0.35 0.05 0 
0.4 0.05 0 
0.45 0.05 0 
0.5 0.05 0 
0.55 0.05 0 
0.6 0.05 0 
0.65 0.05 0 
0.7 0.05 0 
0.75 0.05 0 
0.8 0.05 0 
0.85 0.05 0 
0.9 0.05 0 
0.95 0.05 0 
1 0.05 0 
0 0.1 0 
0.05 0.1 0 
0.1 0.1 0 
0.15 0.1 0 
0.2 0.1 0 
0.25 0.1 0 
0.3 0.1 0 
0.35 0.1 0 
0.4 0.1 0 
0.45 0.1 0 
0.5 0.1 0 
0.55 0.1 0 
0.6 0.1 0 
0.65 0.1 0 
0.7 0.1 0 
0.75 0.1 0 
0.8 0.1 0 
0.85 0.1 0 
0.9 0.1 0 
0.95 0.1 0 
1 0.1 0 
0 0.15 0 
0.05 0.15 0 
0.1 0.15 0 
0.15 0.15 0 
0.2 0.15 0 
0.25 0.15 0 
0.3 0.15 0 
0.35 0.15 0 
0.4 0.15 0 
0.45 0.15 0 
0.5 0.15 0 
0.55 0.15 0 
0.6 0.15 0 
0.65 0.15 0 
0.7 0.15 0 
0.75 0.15 0 
0.8 0.15 0 
0.85 0.15 0 
0.9 0.15 0 
0.95 0.15 0 
1 0.15 0 
0 0.2 0 
0.05 0.2 0 
0.1 0.2 0 
0.15 0.2 0 
0.2 0.2 0 
0.25 0.2 0 
0.3 0.2 0 
0.35 0.2 0 
0.4 0.2 0 
0.45 0.2 0 
0.5 0.2 0 
0.55 0.2 0 
0.6 0.2 0 
0.65 0.2 0 
0.7 0.2 0 
0.75 0.2 0 
0.8 0.2 0 
0.85 0.2 0 
0.9 0.2 0 
0.95 0.2 0 
1 0.2 0 
0 0.25 0 
0.05 0.25 0 
0.1 0.25 0 
0.15 0.25 0 
0.2 0.25 0 
0.25 0.25 0 
0.3 0.25 0 
0.35 0.25 0 
0.4 0.25 0 
0.45 0.25 0 
0.5 0.25 0 
0.55 0.25 0 
0.6 0.25 0 
0.65 0.25 0 
0.7 0.25 0 
0.75 0.25 0 
0.8 0.25 0 
0.85 0.25 0 
0.9 0.25 0 
0.95 0.25 0 
1 0.25 0 
0 0.3 0 
0.05 0.3 0 
0.1 0.3 0 
0.15 0.3 0 
0.2 0.3 0 
0.25 0.3 0 
0.3 0.3 0 
0.35 0.3 0 
0.4 0.3 0 
0.45 0.3 0 
0.5 0.3 0 
0.55 0.3 0 
0.6 0.3 0 
0.65 0.3 0 
0.7 0.3 0 
0.75 0.3 0 
0.8 0.3 0 
0.85 0.3 0 
0.9 0.3 0 
0.95 0.3 0 
1 0.3 0 
0 0.35 0 
0.05 0.35 0 
0.1 0.35 0 
0.15 0.35 0 
0.2 0.35 0 
0.25 0.35 0 
0.3 0.35 0 
0.35 0.35 0 
0.4 0.35 0 
0.45 0.35 0 
0.5 0.35 0 
0.55 0.35 0 
0.6 0.35 0 
0.65 0.35 0 
0.7 0.35 0 
0.75 0.35 0 
0.8 0.35 0 
0.85 0.35 0 
0.9 0.35 0 
0.95 0.35 0 
1 0.35 0 
0 0.4 0 
0.05 0.4 0 
0.1 0.4 0 
0.15 0.4 0 
0.2 0.4 0 
0.25 0.4 0 
0.3 0.4 0 
0.35 0.4 0 
0.4 0.4 0 
0.45 0.4 0 
0.5 0.4 0 
0.55 0.4 0 
0.6 0.4 0 
0.65 0.4 0 
0.7 0.4 0 
0.75 0.4 0 
0.8 0.4 0 
0.85 0.4 0 
0.9 0.4 0 
0.95 0.4 0 
1 0.4 0 
0 0.45 0 
0.05 0.45 0 
0.1 0.45 0 
0.15 0.45 0 
0.2 0.45 0 
0.25 0.45 0 
0.3 0.45 0 
0.35 0.45 0 
0.4 0.45 0 
0.45 0.45 0 
0.5 0.45 0 
0.55 0.45 0 
0.6 0.45 0 
0.65 0.45 0 
0.7 0.45 0 
0.75 0.45 0 
0.8 0.45 0 
0.85 0.45 0 
0.9 0.45 0 
0.95 0.45 0 
1 0.45 0 
0 0.5 0 
0.05 0.5 0 
0.1 0.5 0 
0.15 0.5 0 
0.2 0.5 0 
0.25 0.5 0 
0.3 0.5 0 
0.35 0.5 0 
0.4 0.5 0 
0.45 0.5 0 
0.5 0.5 0 
0.55 0.5 0 
0.6 0.5 0 
0.65 0.5 0 
0.7 0.5 0 
0.75 0.5 0 
0.8 0.5 0 
0.85 0.5 0 
0.9 0.5 0 
0.95 0.5 0 
1 0.5 0 
0 0.55 0 
0.05 0.55 0 
0.1 0.55 0 
0.15 0.55 0 
0.2 0.55 0 
0.25 0.55 0 
0.3 0.55 0 
0.35 0.55 0 
0.4 0.55 0 
0.45 0.55 0 
0.5 0.55 0 
0.55 0.55 0 
0.6 0.55 0 
0.65 0.55 0 
0.7 0.55 0 
0.75 0.55 0 
0.8 0.55 0 
0.85 0.55 0 
0.9 0.55 0 
0.95 0.55 0 
1 0.55 0 
0 0.6 0 
0.05 0.6 0 
0.1 0.6 0 
0.15 0.6 0 
0.2 0.6 0 
0.25 0.6 0 
0.3 0.6 0 
0.35 0.6 0 
0.4 0.6 0 
0.45 0.6 0 
0.5 0.6 0 
0.55 0.6 0 
0.6 0.6 0 
0.65 0.6 0 
0.7 0.6 0 
0.75 0.6 0 
0.8 0.6 0 
0.85 0.6 0 
0.9 0.6 0 
0.95 0.6 0 
1 0.6 0 
0 0.65 0 
0.05 0.65 0 
0.1 0.65 0 
0.15 0.65 0 
0.2 0.65 0 
0.25 0.65 0 
0.3 0.65 0 
0.35 0.65 0 
0.4 0.65 0 
0.45 0.65 0 
0.5 0.65 0 
0.55 0.65 0 
0.6 0.65 0 
0.65 0.65 0 
0.7 0.65 0 
0.75 0.65 0 
0.8 0.65 0 
0.85 0.65 0 
0.9 0.65 0 
0.95 0.65 0 
1 0.65 0 
0 0.7 0 
0.05 0.7 0 
0.1 0.7 0 
0.15 0.7 0 
0.2 0.7 0 
0.25 0.7 0 
0.3 0.7 0 
0.35 0.7 0 
0.4 0.7 0 
0.45 0.7 0 
0.5 0.7 0 
0.55 0.7 0 
0.6 0.7 0 
0.65 0.7 0 
0.7 0.7 0 
0.75 0.7 0 
0.8 0.7 0 
0.85 0.7 0 
0.9 0.7 0 
0.95 0.7 0 
1 0.7 0 
0 0.75 0 
0.05 0.75 0 
0.1 0.75 0 
0.15 0.75 0 
0.2 0.75 0 
0.25 0.75 0 
0.3 0.75 0 
0.35 0.75 0 
0.4 0.75 0 
0.45 0.75 0 
0.5 0.75 0 
0.55 0.75 0 
0.6 0.75 0 
0.65 0.75 0 
0.7 0.75 0 
0.75 0.75 0 
0.8 0.75 0 
0.85 0.75 0 
0.9 0.75 0 
0.95 0.75 0 
1 0.75 0 
0 0.8 0 
0.05 0.8 0 
0.1 0.8 0 
0.15 0.8 0 
0.2 0.8 0 
0.25 0.8 0 
0.3 0.8 0 
0.35 0.8 0 
0.4 0.8 0 
0.45 0.8 0 
0.5 0.8 0 
0.55 0.8 0 
0.6 0.8 0 
0.65 0.8 0 
0.7 0.8 0 
0.75 0.8 0 
0.8 0.8 0 
0.85 0.8 0 
0.9 0.8 0 
0.95 0.8 0 
1 0.8 0 
0 0.85 0 
0.05 0.85 0 
0.1 0.85 0 
0.15 0.85 0 
0.2 0.85 0 
0.25 0.85 0 
0.3 0.85 0 
0.35 0.85 0 
0.4 0.85 0 
0.45 0.85 0 
0.5 0.85 0 
0.55 0.85 0 
0.6 0.85 0 
0.65 0.85 0 
0.7 0.85 0 
0.75 0.85 0 
0.8 0.85 0 
0.85 0.85 0 
0.9 0.85 0 
0.95 0.85 0 
1 0.85 0 
0 0.9 0 
0.05 0.9 0 
0.1 0.9 0 
0.15 0.9 0 
0.2 0.9 0 
0.25 0.9 0 
0.3 0.9 0 
0.35 0.9 0 
0.4 0.9 0 
0.45 0.9 0 
0.5 0.9 0 
0.55 0.9 0 
0.6 0.9 0 
0.65 0.9 0 
0.7 0.9 0 
0.75 0.9 0 
0.8 0.9 0 
0.85 0.9 0 
0.9 0.9 0 
0.95 0.9 0 
1 0.9 0 
0 0.95 0 
0.05 0.95 0 
0.1 0.95 0 
0.15 0.95 0 
0.2 0.95 0 
0.25 0.95 0 
0.3 0.95 0 
0.35 0.95 0 
0.4 0.95 0 
0.45 0.95 0 
0.5 0.95 0 
0.55 0.95 0 
0.6 0.95 0 
0.65 0.95 0 
0.7 0.95 0 
0.75 0.95 0 
0.8 0.95 0 
0.85 0.95 0 
0.9 0.95 0 
0.95 0.95 0 
1 0.95 0 
0 1 0 
0.05 1 0 
0.1 1 0 
0.15 1 0 
0.2 1 0 
0.25 1 0 
0.3 1 0 
0.35 1 0 
0.4 1 0 
0.45 1 0 
0.5 1 0 
0.55 1 0 
0.6 1 0 
0.65 1 0 
0.7 1 0 
0.75 1 0 
0.8 1 0 
0.85 1 0 
0.9 1 0 
0.95 1 0 
1 1 0 
CELLS 400 2000
4 0 1 22 21 
4 1 2 23 22 
4 2 3 24 23 
4 3 4 25 24 
4 4 5 26 25 
4 5 6 27 26 
4 6 7 28 27 
4 7 8 29 28 
4 8 9 30 29 
4 9 10 31 30 
4 10 11 32 31 
4 11 12 33 32 
4 12 13 34 33 
4 13 14 35 34 
4 14 15 36 35 
4 15 16 37 36 
4 16 17 38 37 
4 17 18 39 38 
4 18 19 40 39 
4 19 20 41 40 
4 21 22 43 42 
4 22 23 44 43 
4 23 24 45 44 
4 24 25 46 45 
4 25 26 47 46 
4 26 27 48 47 
4 27 28 49 48 
4 28 29 50 49 
4 29 30 51 50 
4 30 31 52 51 
4 31 32 53 52 
4 32 33 54 53 
4 33 34 55 54 
4 34 35 56 55 
4 35 36 57 56 
4 36 37 58 57 
4 37 38 59 58 
4 38 39 60 59 
4 39 40 61 60 
4 40 41 62 61 
4 42 43 64 63 
4 43 44 65 64 
4 44 45 66 65 
4 45 46 67 66 
4 46 47 68 67 
4 47 48 69 68 
4 48 49 70 69 
4 49 50 71 70 
4 50 51 72 71 
4 51 52 73 72 
4 52 53 74 73 
4 53 54 75 74 
4 54 55 76 75 
4 55 56 77 76 
4 56 57 78 77 
4 57 58 79 78 
4 58 59 80 79 
4 59 60 81 80 
4 60 61 82 81 
4 61 62 83 82 
4 63 64 85 84 
4 64 65 86 85 
4 65 66 87 86 
4 66 67 88 87 
4 67 68 89 88 
4 68 69 90 89 
4 69 70 91 90 
4 70 71 92 91 
4 71 72 93 92 
4 72 73 94 93 
4 73 74 95 94 
4 74 75 96 95 
4 75 76 97 96 
4 76 77 98 97 
4 77 78 99 98 
4 78 79 100 99 
4 79 80 101 100 
4 80 81 102 101 
4 81 82 103 102 
4 82 83 104 103 
4 84 85 106 105 
4 85 86 107 106 
4 86 87 108 107 
4 87 88 109 108 
4 88 89 110 109 
4 89 90 111 110 
4 90 91 112 111 
4 91 92 113 112 
4 92 93 114 113 
4 93 94 115 114 
4 94 95 116 115 
4 95 96 117 116 
4 96 97 118 117 
4 97 98 119 118 
4 98 99 120 119 
4 99 100 121 120 
4 100 101 122 121 
4 101 102 123 122 
4 102 103 124 123 
4 103 104 125 124 
4 105 106 127 126 
4 106 107 128 127 
4 107 108 129 128 
4 108 109 130 129 
4 109 110 131 130 
4 110 111 132 131 
4 111 112 133 132 
4 112 113 134 133 
4 113 114 135 134 
4 114 115 136 135 
4 115 116 137 136 
4 116 117 138 137 
4 117 118 139 138 
4 118 119 140 139 
4 119 120 141 140 
4 120 121 142 141 
4 121 122 143 142 
4 122 123 144 143 
4 123 124 145 144 
4 124 125 146 145 
4 126 127 148 147 
4 127 128 149 148 
4 128 129 150 149 
4 129 130 151 150 
4 130 131 152 151 
4 131 132 153 152 
4 132 133 154 153 
4 133 134 155 154 
4 134 135 156 155 
4 135 136 157 156 
4 136 137 158 157 
4 137 138 159 158 
4 138 139 160 159 
4 139 140 161 160 
4 140 141 162 161 
4 141 142 163 162 
4 142 143 164 163 
4 143 144 165 164 
4 144 145 166 165 
4 145 146 167 166 
4 147 148 169 168 
4 148 149 170 169 
4 149 150 171 170 
4 150 151 172 171 
4 151 152 173 172 
4 152 153 174 173 
4 153 154 175 174 
4 154 155 176 175 
4 155 156 177 176 
4 156 157 178 177 
4 157 158 179 178 
4 158 159 180 179 
4 159 160 181 180 
4 160 161 182 181 
4 161 162 183 182 
4 162 163 184 183 
4 163 164 185 184 
4 164 165 186 185 
4 165 166 187 186 
4 166 167 188 187 
4 168 169 190 189 
4 169 170 191 190 
4 170 171 192 191 
4 171 172 193 192 
4 172 173 194 193 
4 173 174 195 194 
4 174 175 196 195 
4 175 176 197 196 
4 176 177 198 197 
4 177 178 199 198 
4 178 179 200 199 
4 179 180 201 200 
4 180 181 202 201 
4 181 182 203 202 
4 182 183 204 203 
4 183 184 205 204 
4 184 185 206 205 
4 185 186 207 206 
4 186 187 208 207 
4 187 188 209 208 
4 189 190 211 210 
4 190 191 212 211 
4 191 192 213 212 
4 192 193 214 213 
4 193 194 215 214 
4 194 195 216 215 
4 195 196 217 216 
4 196 197 218 217 
4 197 198 219 218 
4 198 199 220 219 
4 199 200 221 220 
4 200 201 222 221 
4 201 202 223 222 
4 202 203 224 223 
4 203 204 225 224 
4 204 205 226 225 
4 205 206 227 226 
4 206 207 228 227 
4 207 208 229 228 
4 208 209 230 229 
4 210 211 232 231 
4 211 212 233 232 
4 212 213 234 233 
4 213 214 235 234 
4 214 215 236 235 
4 215 216 237 236 
4 216 217 238 237 
4 217 218 239 238 
4 218 219 240 239 
4 219 220 241 240 
4 220 221 242 241 
4 221 222 243 242 
4 222 223 244 243 
4 223 224 245 244 
4 224 225 246 245 
4 225 226 247 246 
4 226 227 248 247 
4 227 228 249 248 
4 228 229 250 249 
4 229 230 251 250 
4 231 232 253 252 
4 232 233 254 253 
4 233 234 255 254 
4 234 235 256 255 
4 235 236 257 256 
4 236 237 258 257 
4 237 238 259 258 
4 238 239 260 259 
4 239 240 261 260 
4 240 241 262 261 
4 241 242 263 262 
4 242 243 264 263 
4 243 244 265 264 
4 244 245 266 265 
4 245 246 267 266 
4 246 247 268 267 
4 247 248 269 268 
4 248 249 270 269 
4 249 250 271 270 
4 250 251 272 271 
4 252 253 274 273 
4 253 254 275 274 
4 254 255 276 275 
4 255 256 277 276 
4 256 257 278 277 
4 257 258 279 278 
4 258 259 280 279 
4 259 260 281 280 
4 260 261 282 281 
4 261 262 283 282 
4 262 263 284 283 
4 263 264 285 284 
4 264 265 286 285 
4 265 266 287 286 
4 266 267 288 287 
4 267 268 289 288 
4 268 269 290 289 
4 269 270 291 290 
4 270 271 292 291 
4 271 272 293 292 
4 273 274 295 294 
4 274 275 296 295 
4 275 276 297 296 
4 276 277 298 297 
4 277 278 299 298 
4 278 279 300 299 
4 279 280 301 300 
4 280 281 302 301 
4 281 282 303 302 
4 282 283 304 303 
4 283 284 305 304 
4 284 285 306 305 
4 285 286 307 306 
4 286 287 308 307 
4 287 288 309 308 
4 288 289 310 309 
4 289 290 311 310 
4 290 291 312 311 
4 291 292 313 312 
4 292 293 314 313 
4 294 295 316 315 
4 295 296 317 316 
4 296 297 318 317 
4 297 298 319 318 
4 298 299 320 319 
4 299 300 321 320 
4 300 301 322 321 
4 301 302 323 322 
4 302 303 324 323 
4 303 304 325 324 
4 304 305 326 325 
4 305 306 327 326 
4 306 307 328 327 
4 307 308 329 328 
4 308 309 330 329 
4 309 310 331 330 
4 310 311 332 331 
4 311 312 333 332 
4 312 313 334 333 
4 313 314 335 334 
4 315 316 337 336 
4 316 317 338 337 
4 317 318 339 338 
4 318 319 340 339 
4 319 320 341 340 
4 320 321 342 341 
4 321 322 343 342 
4 322 323 344 343 
4 323 324 345 344 
4 324 325 346 345 
4 325 326 347 346 
4 326 327 348 347 
4 327 328 349 348 
4 328 329 350 349 
4 329 330 351 350 
4 330 331 352 351 
4 331 332 353 352 
4 332 333 354 353 
4 333 334 355 354 
4 334 335 356 355 
4 336 337 358 357 
4 337 338 359 358 
4 338 339 360 359 
4 339 340 361 360 
4 340 341 362 361 
4 341 342 363 362 
4 342 343 364 363 
4 343 344 365 364 
4 344 345 366 365 
4 345 346 367 366 
4 346 347 368 367 
4 347 348 369 368 
4 348 349 370 369 
4 349 350 371 370 
4 350 351 372 371 
4 351 352 373 372 
4 352 353 374 373 
4 353 354 375 374 
4 354 355 376 375 
4 355 356 377 376 
4 357 358 379 378 
4 358 359 380 379 
4 359 360 381 380 
4 360 361 382 381 
4 361 362 383 382 
4 362 363 384 383 
4 363 364 385 384 
4 364 365 386 385 
4 365 366 387 386 
4 366 367 388 387 
4 367 368 389 388 
4 368 369 390 389 
4 369 370 391 390 
4 370 371 392 391 
4 371 372 393 392 
4 372 373 394 393 
4 373 374 395 394 
4 374 375 396 395 
4 375 376 397 396 
4 376 377 398 397 
4 378 379 400 399 
4 379 380 401 400 
4 380 381 402 401 
4 381 382 403 402 
4 382 383 404 403 
4 383 384 405 404 
4 384 385 406 405 
4 385 386 407 406 
4 386 387 408 407 
4 387 388 409 408 
4 388 389 410 409 
4 389 390 411 410 
4 390 391 412 411 
4 391 392 413 412 
4 392 393 414 413 
4 393 394 415 414 
4 394 395 416 415 
4 395 396 417 416 
4 396 397 418 417 
4 397 398 419 418 
4 399 400 421 420 
4 400 401 422 421 
4 401 402 423 422 
4 402 403 424 423 
4 403 404 425 424 
4 404 405 426 425 
4 405 406 427 426 
4 406 407 428 427 
4 407 408 429 428 
4 408 409 430 429 
4 409 410 431 430 
4 410 411 432 431 
4 411 412 433 432 
4 412 413 434 433 
4 413 414 435 434 
4 414 415 436 435 
4 415 416 437 436 
4 416 417 438 437 
4 417 418 439 438 
4 418 419 440 439 
CELL_TYPES 400
9
9
9
9
9
9
9
9
9
9
9
9
9
9
9
9
9
9
9
9
9
9
9
9
9
9
9
9
9
9
9
9
9
9
9
9
9
9
9
9
9
9
9
9
9
9
9
9
9
9
9
9
9
9
9
9
9
9
9
9
9
9
9
9
9
9
9
9
9
9
9
9
9
9
9
9
9
9
9
9
9
9
9
9
9
9
9
9
9
9
9
9
9
9
9
9
9
9
9
9
9
9
9
9
9
9
9
9
9
9
9
9
9
9
9
9
9
9
9
9
9
9
9
9
9
9
9
9
9
9
9
9
9
9
9
9
9
9
9
9
9
9
9
9
9
9
9
9
9
9
9
9
9
9
9
9
9
9
9
9
9
9
9
9
9
9
9
9
9
9
9
9
9
9
9
9
9
9
9
9
9
9
9
9
9
9
9
9
9
9
9
9
9
9
9
9
9
9
9
9
9
9
9
9
9
9
9
9
9
9
9
9
9
9
9
9
9
9
9
9
9
9
9
9
9
9
9
9
9
9
9
9
9
9
9
9
9
9
9
9
9
9
9
9
9
9
9
9
9
9
9
9
9
9
9
9
9
9
9
9
9
9
9
9
9
9
9
9
9
9
9
9
9
9
9
9
9
9
9
9
9
9
9
9
9
9
9
9
9
9
9
9
9
9
9
9
9
9
9
9
9
9
9
9
9
9
9
9
9
9
9
9
9
9
9
9
9
9
9
9
9
9
9
9
9
9
9
9
9
9
9
9
9
9
9
9
9
9
9
9
9
9
9
9
9
9
9
9
9
9
9
9
9
9
9
9
9
9
9
9
9
9
9
9
9
9
9
9
9
9
9
9
9
9
9
9
9
9
9
9
9
9
9
9
9
9
9
9
9
9
9
9
9
9
9
9
9
9
9
9
POINT_DATA 441
VECTORS disp float 
0 0 0 
0.00726909 0.0067629 0 
0.0125905 0.0106927 0 
0.017407 0.0134342 0 
0.0220512 0.0154568 0 
0.0266454 0.0169781 0 
0.0312462 0.0181289 0 
0.0358816 0.0189984 0 
0.0405654 0.0196517 0 
0.0453028 0.0201384 0 
0.0500942 0.0204969 0 
0.0549373 0.0207575 0 
0.0598276 0.0209438 0 
0.0647601 0.0210745 0 
0.0697291 0.0211641 0 
0.0747289 0.0212241 0 
0.0797538 0.0212629 0 
0.0847985 0.0212871 0 
0.0898577 0.0213013 0 
0.0949265 0.0213087 0 
0.1 0.0213109 0 
0 0 0 
0.00490029 0.00473658 0 
0.0103898 0.00860024 0 
0.0156055 0.0114139 0 
0.0206141 0.0134848 0 
0.0255103 0.0150277 0 
0.030356 0.0161822 0 
0.0351885 0.0170447 0 
0.0400298 0.0176852 0 
0.0448925 0.0181562 0 
0.0497831 0.0184982 0 
0.0547038 0.0187425 0 
0.0596546 0.0189137 0 
0.0646335 0.0190309 0 
0.069638 0.0191088 0 
0.0746645 0.0191588 0 
0.0797096 0.0191897 0 
0.0847694 0.0192078 0 
0.0898402 0.0192177 0 
0.0949183 0.0192224 0 
0.1 0.0192238 0 
0 0 0 
0.00434933 0.00360043 0 
0.00927626 0.00688959 0 
0.0143866 0.00952343 0 
0.0194785 0.0115402 0 
0.0245176 0.0130637 0 
0.0295155 0.0142066 0 
0.0344907 0.0150581 0 
0.0394587 0.0156864 0 
0.0444306 0.0161447 0 
0.0494134 0.0164737 0 
0.054411 0.0167056 0 
0.0594251 0.0168653 0 
0.0644558 0.0169721 0 
0.0695022 0.0170411 0 
0.0745628 0.0170836 0 
0.0796355 0.0171084 0 
0.0847179 0.0171218 0 
0.0898078 0.0171283 0 
0.0949027 0.0171311 0 
0.1 0.0171318 0 
0 0 0 
0.00415114 0.00284816 0 
0.00875384 0.00555092 0 
0.013649 0.00786022 0 
0.0186704 0.00971344 0 
0.0237298 0.0111519 0 
0.0287935 0.0122465 0 
0.0338532 0.0130669 0 
0.0389097 0.0136729 0 
0.0439666 0.0141135 0 
0.0490271 0.0144282 0 
0.0540938 0.014648 0 
0.0591679 0.0147974 0 
0.0642502 0.0148957 0 
0.0693406 0.0149576 0 
0.0744383 0.0149944 0 
0.0795425 0.0150147 0 
0.0846521 0.0150247 0 
0.0897658 0.0150289 0 
0.0948822 0.0150303 0 
0.1 0.0150306 0 
0 0 0 
0.00405878 0.00227745 0 
0.00848556 0.00446869 0 
0.0132087 0.00641297 0 
0.0181218 0.00803391 0 
0.02314 0.00932895 0 
0.0282114 0.0103335 0 
0.0333086 0.0110953 0 
0.0384185 0.0116616 0 
0.0435351 0.0120743 0 
0.048656 0.0123686 0 
0.0537802 0.0125734 0 
0.0589073 0.0127117 0 
0.0640372 0.0128016 0 
0.0691697 0.0128573 0 
0.0743044 0.0128895 0 
0.079441 0.0129065 0 
0.0845793 0.0129142 0 
0.0897189 0.0129169 0 
0.0948592 0.0129174 0 
0.1 0.0129174 0 
0 0 0 
0.00400956 0.00180532 0 
0.00833512 0.00355201 0 
0.012939 0.00513604 0 
0.0177541 0.00649306 0 
0.0227127 0.00760433 0 
0.0277621 0.00848311 0 
0.0328665 0.00915873 0 
0.0380029 0.00966552 0 
0.0431576 0.0100368 0 
0.0483221 0.0103023 0 
0.0534913 0.0104869 0 
0.0586623 0.0106113 0 
0.0638335 0.0106916 0 
0.0690037 0.0107409 0 
0.0741727 0.0107689 0 
0.0793402 0.0107832 0 
0.0845064 0.0107892 0 
0.0896716 0.010791 0 
0.094836 0.0107911 0 
0.1 0.0107909 0 
0 0 0 
0.00398141 0.00139249 0 
0.00824556 0.00274314 0 
0.0127694 0.00398401 0 
0.0175081 0.00506688 0 
0.0224099 0.00597066 0 
0.0274274 0.00669728 0 
0.0325229 0.00726327 0 
0.0376687 0.00769193 0 
0.0428452 0.00800807 0 
0.0480391 0.00823501 0 
0.0532417 0.00839317 0 
0.0584471 0.00849964 0 
0.0636519 0.00856832 0 
0.0688541 0.00861021 0 
0.0740528 0.00863384 0 
0.0792477 0.00864567 0 
0.0844391 0.00865049 0 
0.0896277 0.0086517 0 
0.0948144 0.00865157 0 
0.1 0.00865138 0 
0 0 0 
0.00396482 0.00101735 0 
0.00819078 0.00200536 0 
0.0126618 0.00292024 0 
0.0173455 0.00372844 0 
0.0222013 0.00441224 0 
0.027188 0.0049691 0 
0.032269 0.00540761 0 
0.0374148 0.00574258 0 
0.0426024 0.00599121 0 
0.047815 0.00617049 0 
0.0530407 0.00629577 0 
0.0582715 0.00638024 0 
0.0635022 0.00643473 0 
0.0687296 0.00646791 0 
0.0739522 0.00648656 0 
0.0791696 0.00649582 0 
0.084382 0.00649951 0 
0.0895904 0.00650037 0 
0.094796 0.00650019 0 
0.1 0.00650002 0 
0 0 0 
0.00395517 0.000666313 0 
0.00815789 0.00131383 0 
0.0125955 0.00191624 0 
0.0172426 0.00245252 0 
0.0220655 0.00291038 0 
0.027028 0.00328662 0 
0.0320954 0.00358526 0 
0.0372376 0.00381491 0 
0.0424299 0.00398624 0 
0.0476535 0.00411025 0 
0.0528942 0.00419715 0 
0.0581422 0.00425584 0 
0.063391 0.00429373 0 
0.0686365 0.00431681 0 
0.0738766 0.00432977 0 
0.0791106 0.00433619 0 
0.0843388 0.00433873 0 
0.0895621 0.0043393 0 
0.094782 0.00433916 0 
0.1 0.00433904 0 
0 0 0 
0.00395012 0.000329747 0 
0.00814025 0.000650299 0 
0.0125594 0.000949269 0 
0.0171856 0.00121655 0 
0.021989 0.00144592 0 
0.0269364 0.0016354 0 
0.0319944 0.00178654 0 
0.0371331 0.00190323 0 
0.0423271 0.00199058 0 
0.0475563 0.00205397 0 
0.0528053 0.00209847 0 
0.0580633 0.00212856 0 
0.0633227 0.00214801 0 
0.0685791 0.00215986 0 
0.0738298 0.00216652 0 
0.079074 0.00216981 0 
0.0843119 0.00217112 0 
0.0895444 0.0021714 0 
0.0947732 0.00217133 0 
0.1 0.00217127 0 
0 0 0 
0.00394855 3.44488e-18 0 
0.00813469 9.27416e-18 0 
0.0125479 1.85704e-17 0 
0.0171673 2.92938e-17 0 
0.0219644 3.98105e-17 0 
0.0269066 5.11299e-17 0 
0.0319613 6.6819e-17 0 
0.0370986 8.35547e-17 0 
0.042293 1.01258e-16 0 
0.0475238 1.06832e-16 0 
0.0527755 1.1807e-16 0 
0.0580367 1.28861e-16 0 
0.0632997 1.37673e-16 0 
0.0685596 1.3971e-16 0 
0.0738139 1.56098e-16 0 
0.0790616 1.88509e-16 0 
0.0843027 1.96671e-16 0 
0.0895384 2.14985e-16 0 
0.0947702 2.13872e-16 0 
0.1 2.13235e-16 0 
0 0 0 
0.00395012 -0.000329747 0 
0.00814025 -0.000650299 0 
0.0125594 -0.000949269 0 
0.0171856 -0.00121655 0 
0.021989 -0.00144592 0 
0.0269364 -0.0016354 0 
0.0319944 -0.00178654 0 
0.0371331 -0.00190323 0 
0.0423271 -0.00199058 0 
0.0475563 -0.00205397 0 
0.0528053 -0.00209847 0 
0.0580633 -0.00212856 0 
0.0633227 -0.00214801 0 
0.0685791 -0.00215986 0 
0.0738298 -0.00216652 0 
0.079074 -0.00216981 0 
0.0843119 -0.00217112 0 
0.0895444 -0.0021714 0 
0.0947732 -0.00217133 0 
0.1 -0.00217127 0 
0 0 0 
0.00395517 -0.000666313 0 
0.00815789 -0.00131383 0 
0.0125955 -0.00191624 0 
0.0172426 -0.00245252 0 
0.0220655 -0.00291038 0 
0.027028 -0.00328662 0 
0.0320954 -0.00358526 0 
0.0372376 -0.00381491 0 
0.0424299 -0.00398624 0 
0.0476535 -0.00411025 0 
0.0528942 -0.00419715 0 
0.0581422 -0.00425584 0 
0.063391 -0.00429373 0 
0.0686365 -0.00431681 0 
0.0738766 -0.00432977 0 
0.0791106 -0.00433619 0 
0.0843388 -0.00433873 0 
0.0895621 -0.0043393 0 
0.094782 -0.00433916 0 
0.1 -0.00433904 0 
0 0 0 
0.00396482 -0.00101735 0 
0.00819078 -0.00200536 0 
0.0126618 -0.00292024 0 
0.0173455 -0.00372844 0 
0.0222013 -0.00441224 0 
0.027188 -0.0049691 0 
0.032269 -0.00540761 0 
0.0374148 -0.00574258 0 
0.0426024 -0.00599121 0 
0.047815 -0.00617049 0 
0.0530407 -0.00629577 0 
0.0582715 -0.00638024 0 
0.0635022 -0.00643473 0 
0.0687296 -0.00646791 0 
0.0739522 -0.00648656 0 
0.0791696 -0.00649582 0 
0.084382 -0.00649951 0 
0.0895904 -0.00650037 0 
0.094796 -0.00650019 0 
0.1 -0.00650002 0 
0 0 0 
0.00398141 -0.00139249 0 
0.00824556 -0.00274314 0 
0.0127694 -0.00398401 0 
0.0175081 -0.00506688 0 
0.0224099 -0.00597066 0 
0.0274274 -0.00669728 0 
0.0325229 -0.00726327 0 
0.0376687 -0.00769193 0 
0.0428452 -0.00800807 0 
0.0480391 -0.00823501 0 
0.0532417 -0.00839317 0 
0.0584471 -0.00849964 0 
0.0636519 -0.00856832 0 
0.0688541 -0.00861021 0 
0.0740528 -0.00863384 0 
0.0792477 -0.00864567 0 
0.0844391 -0.00865049 0 
0.0896277 -0.0086517 0 
0.0948144 -0.00865157 0 
0.1 -0.00865138 0 
0 0 0 
0.00400956 -0.00180532 0 
0.00833512 -0.00355201 0 
0.012939 -0.00513604 0 
0.0177541 -0.00649306 0 
0.0227127 -0.00760433 0 
0.0277621 -0.00848311 0 
0.0328665 -0.00915873 0 
0.0380029 -0.00966552 0 
0.0431576 -0.0100368 0 
0.0483221 -0.0103023 0 
0.0534913 -0.0104869 0 
0.0586623 -0.0106113 0 
0.0638335 -0.0106916 0 
0.0690037 -0.0107409 0 
0.0741727 -0.0107689 0 
0.0793402 -0.0107832 0 
0.0845064 -0.0107892 0 
0.0896716 -0.010791 0 
0.094836 -0.0107911 0 
0.1 -0.0107909 0 
0 0 0 
0.00405878 -0.00227745 0 
0.00848556 -0.00446869 0 
0.0132087 -0.00641297 0 
0.0181218 -0.00803391 0 
0.02314 -0.00932895 0 
0.0282114 -0.0103335 0 
0.0333086 -0.0110953 0 
0.0384185 -0.0116616 0 
0.0435351 -0.0120743 0 
0.048656 -0.0123686 0 
0.0537802 -0.0125734 0 
0.0589073 -0.0127117 0 
0.0640372 -0.0128016 0 
0.0691697 -0.0128573 0 
0.0743044 -0.0128895 0 
0.079441 -0.0129065 0 
0.0845793 -0.0129142 0 
0.0897189 -0.0129169 0 
0.0948592 -0.0129174 0 
0.1 -0.0129174 0 
0 0 0 
0.00415114 -0.00284816 0 
0.00875384 -0.00555092 0 
0.013649 -0.00786022 0 
0.0186704 -0.00971344 0 
0.0237298 -0.0111519 0 
0.0287935 -0.0122465 0 
0.0338532 -0.0130669 0 
0.0389097 -0.0136729 0 
0.0439666 -0.0141135 0 
0.0490271 -0.0144282 0 
0.0540938 -0.014648 0 
0.0591679 -0.0147974 0 
0.0642502 -0.0148957 0 
0.0693406 -0.0149576 0 
0.0744383 -0.0149944 0 
0.0795425 -0.0150147 0 
0.0846521 -0.0150247 0 
0.0897658 -0.0150289 0 
0.0948822 -0.0150303 0 
0.1 -0.0150306 0 
0 0 0 
0.00434933 -0.00360043 0 
0.00927626 -0.00688959 0 
0.0143866 -0.00952343 0 
0.0194785 -0.0115402 0 
0.0245176 -0.0130637 0 
0.0295155 -0.0142066 0 
0.0344907 -0.0150581 0 
0.0394587 -0.0156864 0 
0.0444306 -0.0161447 0 
0.0494134 -0.0164737 0 
0.054411 -0.0167056 0 
0.0594251 -0.0168653 0 
0.0644558 -0.0169721 0 
0.0695022 -0.0170411 0 
0.0745628 -0.0170836 0 
0.0796355 -0.0171084 0 
0.0847179 -0.0171218 0 
0.0898078 -0.0171283 0 
0.0949027 -0.0171311 0 
0.1 -0.0171318 0 
0 0 0 
0.00490029 -0.00473658 0 
0.0103898 -0.00860024 0 
0.0156055 -0.0114139 0 
0.0206141 -0.0134848 0 
0.0255103 -0.0150277 0 
0.030356 -0.0161822 0 
0.0351885 -0.0170447 0 
0.0400298 -0.0176852 0 
0.0448925 -0.0181562 0 
0.0497831 -0.0184982 0 
0.0547038 -0.0187425 0 
0.0596546 -0.0189137 0 
0.0646335 -0.0190309 0 
0.069638 -0.0191088 0 
0.0746645 -0.0191588 0 
0.0797096 -0.0191897 0 
0.0847694 -0.0192078 0 
0.0898402 -0.0192177 0 
0.0949183 -0.0192224 0 
0.1 -0.0192238 0 
0 0 0 
0.00726909 -0.0067629 0 
0.0125905 -0.0106927 0 
0.017407 -0.0134342 0 
0.0220512 -0.0154568 0 
0.0266454 -0.0169781 0 
0.0312462 -0.0181289 0 
0.0358816 -0.0189984 0 
0.0405654 -0.0196517 0 
0.0453028 -0.0201384 0 
0.0500942 -0.0204969 0 
0.0549373 -0.0207575 0 
0.0598276 -0.0209438 0 
0.0647601 -0.0210745 0 
0.0697291 -0.0211641 0 
0.0747289 -0.0212241 0 
0.0797538 -0.0212629 0 
0.0847985 -0.0212871 0 
0.0898577 -0.0213013 0 
0.0949265 -0.0213087 0 
0.1 -0.0213109 0 
CELL_DATA 400
TENSORS sigma float 
135.833 34.6002 0 34.6002 15.5979 0 0 0 41.0588 
117.23 14.6174 0 14.6174 4.46076 0 0 0 33.4546 
107.59 7.93593 0 7.93593 1.88273 0 0 0 30.2821 
102.998 4.83646 0 4.83646 0.961401 0 0 0 28.839 
100.967 3.09582 0 3.09582 0.532778 0 0 0 28.1887 
100.298 2.00836 0 2.00836 0.300138 0 0 0 27.9449 
100.382 1.28773 0 1.28773 0.160998 0 0 0 27.9218 
100.876 0.79565 0 0.79565 0.0721524 0 0 0 28.0197 
101.582 0.45624 0 0.45624 0.0128215 0 0 0 28.1805 
102.375 0.223535 0 0.223535 -0.0279824 0 0 0 28.3692 
103.178 0.0674757 0 0.0674757 -0.0565264 0 0 0 28.5642 
103.943 -0.0327449 0 -0.0327449 -0.0766277 0 0 0 28.7521 
104.642 -0.0921092 0 -0.0921092 -0.0907536 0 0 0 28.925 
105.259 -0.12167 0 -0.12167 -0.100584 0 0 0 29.0783 
105.787 -0.129681 0 -0.129681 -0.107313 0 0 0 29.2098 
106.223 -0.122333 0 -0.122333 -0.111812 0 0 0 29.3187 
106.567 -0.104267 0 -0.104267 -0.114728 0 0 0 29.4049 
106.822 -0.0789639 0 -0.0789639 -0.116532 0 0 0 29.4689 
106.991 -0.0490621 0 -0.0490621 -0.117558 0 0 0 29.5112 
107.075 -0.0166237 0 -0.0166237 -0.118019 0 0 0 29.5322 
113.804 30.1628 0 30.1628 34.3152 0 0 0 41.8285 
114.627 22.1134 0 22.1134 13.8169 0 0 0 35.6994 
111.371 13.3151 0 13.3151 6.52458 0 0 0 32.6965 
108.144 7.92741 0 7.92741 3.50648 0 0 0 30.9629 
105.943 4.68659 0 4.68659 2.04513 0 0 0 29.9495 
104.678 2.67348 0 2.67348 1.24462 0 0 0 29.3731 
104.088 1.39157 0 1.39157 0.7645 0 0 0 29.0674 
103.948 0.568667 0 0.568667 0.457194 0 0 0 28.9309 
104.092 0.0463759 0 0.0463759 0.251462 0 0 0 28.8993 
104.403 -0.273339 0 -0.273339 0.109716 0 0 0 28.9309 
104.799 -0.454368 0 -0.454368 0.0105266 0 0 0 28.9984 
105.226 -0.539998 0 -0.539998 -0.0592116 0 0 0 29.0835 
105.648 -0.560317 0 -0.560317 -0.108037 0 0 0 29.1741 
106.04 -0.536509 0 -0.536509 -0.14182 0 0 0 29.2623 
106.389 -0.483507 0 -0.483507 -0.164767 0 0 0 29.3429 
106.685 -0.41174 0 -0.41174 -0.179966 0 0 0 29.4128 
106.924 -0.328355 0 -0.328355 -0.189708 0 0 0 29.47 
107.104 -0.238112 0 -0.238112 -0.195665 0 0 0 29.5136 
107.224 -0.144082 0 -0.144082 -0.199016 0 0 0 29.5428 
107.283 -0.0482087 0 -0.0482087 -0.200509 0 0 0 29.5575 
105.883 24.2566 0 24.2566 36.5408 0 0 0 40.6991 
109.506 20.8376 0 20.8376 22.0555 0 0 0 37.1219 
110.341 15.0209 0 15.0209 12.5283 0 0 0 34.3822 
109.552 9.87697 0 9.87697 7.34375 0 0 0 32.5668 
108.398 6.14094 0 6.14094 4.47525 0 0 0 31.368 
107.42 3.58067 0 3.58067 2.79611 0 0 0 30.5809 
106.752 1.86363 0 1.86363 1.7557 0 0 0 30.0724 
106.373 0.731835 0 0.731835 1.08052 0 0 0 29.7538 
106.219 0.00527774 0 0.00527774 0.6275 0 0 0 29.5642 
106.224 -0.439791 0 -0.439791 0.317115 0 0 0 29.4619 
106.331 -0.689243 0 -0.689243 0.102369 0 0 0 29.4173 
106.499 -0.803435 0 -0.803435 -0.0462193 0 0 0 29.41 
106.693 -0.825162 0 -0.825162 -0.148163 0 0 0 29.4252 
106.893 -0.784815 0 -0.784815 -0.216976 0 0 0 29.4527 
107.081 -0.703846 0 -0.703846 -0.262337 0 0 0 29.4853 
107.248 -0.597167 0 -0.597167 -0.291315 0 0 0 29.5179 
107.387 -0.474901 0 -0.474901 -0.3091 0 0 0 29.5472 
107.494 -0.343684 0 -0.343684 -0.319451 0 0 0 29.5708 
107.566 -0.207687 0 -0.207687 -0.324983 0 0 0 29.5872 
107.602 -0.0694447 0 -0.0694447 -0.327348 0 0 0 29.5956 
102.353 19.5091 0 19.5091 36.8179 0 0 0 40.0066 
106.127 17.7943 0 17.7943 26.0908 0 0 0 37.6349 
108.398 14.1978 0 14.1978 17.2482 0 0 0 35.4479 
109.227 10.2335 0 10.2335 11.1678 0 0 0 33.741 
109.209 6.82737 0 6.82737 7.23872 0 0 0 32.4833 
108.859 4.21601 0 4.21601 4.70389 0 0 0 31.5758 
108.457 2.32968 0 2.32968 3.03666 0 0 0 30.9292 
108.123 1.02132 0 1.02132 1.9152 0 0 0 30.4744 
107.887 0.149008 0 0.149008 1.14719 0 0 0 30.1597 
107.746 -0.403193 0 -0.403193 0.615566 0 0 0 29.9466 
107.681 -0.724621 0 -0.724621 0.246492 0 0 0 29.8066 
107.67 -0.882387 0 -0.882387 -0.00851646 0 0 0 29.7186 
107.696 -0.926177 0 -0.926177 -0.182594 0 0 0 29.6669 
107.742 -0.892306 0 -0.892306 -0.299155 0 0 0 29.6397 
107.797 -0.806912 0 -0.806912 -0.375149 0 0 0 29.6284 
107.853 -0.688438 0 -0.688438 -0.423007 0 0 0 29.6267 
107.904 -0.549563 0 -0.549563 -0.451853 0 0 0 29.6299 
107.944 -0.39872 0 -0.39872 -0.468275 0 0 0 29.6348 
107.973 -0.241318 0 -0.241318 -0.476841 0 0 0 29.6392 
107.987 -0.0807496 0 -0.0807496 -0.480429 0 0 0 29.6417 
100.569 15.6154 0 15.6154 36.8526 0 0 0 39.6453 
104.073 14.6189 0 14.6189 28.2054 0 0 0 37.8522 
106.746 12.338 0 12.338 20.4137 0 0 0 36.0873 
108.39 9.4848 0 9.4848 14.2818 0 0 0 34.5603 
109.19 6.72106 0 6.72106 9.80808 0 0 0 33.3285 
109.453 4.38954 0 4.38954 6.64495 0 0 0 32.3693 
109.433 2.57986 0 2.57986 4.42535 0 0 0 31.6371 
109.291 1.25484 0 1.25484 2.86496 0 0 0 31.0858 
109.114 0.332699 0 0.332699 1.76452 0 0 0 30.6755 
108.945 -0.273867 0 -0.273867 0.988141 0 0 0 30.3739 
108.802 -0.642427 0 -0.642427 0.442683 0 0 0 30.1552 
108.686 -0.836599 0 -0.836599 0.0631053 0 0 0 29.9992 
108.598 -0.906258 0 -0.906258 -0.197031 0 0 0 29.8898 
108.532 -0.889297 0 -0.889297 -0.371541 0 0 0 29.8148 
108.484 -0.813758 0 -0.813758 -0.485375 0 0 0 29.7648 
108.45 -0.699855 0 -0.699855 -0.557043 0 0 0 29.7324 
108.427 -0.561753 0 -0.561753 -0.600207 0 0 0 29.7122 
108.411 -0.40907 0 -0.40907 -0.624755 0 0 0 29.7002 
108.402 -0.248148 0 -0.248148 -0.637546 0 0 0 29.6937 
108.398 -0.0831257 0 -0.0831257 -0.642899 0 0 0 29.6908 
99.5927 12.2602 0 12.2602 36.8655 0 0 0 39.4591 
102.815 11.6257 0 11.6257 29.4384 0 0 0 37.9741 
105.54 10.1332 0 10.1332 22.4947 0 0 0 36.4848 
107.551 8.12926 0 8.12926 16.6019 0 0 0 35.1208 
108.851 6.0269 0 6.0269 11.9334 0 0 0 33.9484 
109.585 4.11996 0 4.11996 8.38519 0 0 0 32.9805 
109.925 2.54811 0 2.54811 5.74915 0 0 0 32.2016 
110.018 1.34009 0 1.34009 3.81531 0 0 0 31.5859 
109.968 0.465127 0 0.465127 2.40889 0 0 0 31.1059 
109.844 -0.131308 0 -0.131308 1.39479 0 0 0 30.7363 
109.687 -0.507748 0 -0.507748 0.671355 0 0 0 30.455 
109.523 -0.71745 0 -0.71745 0.162464 0 0 0 30.2434 
109.366 -0.804971 0 -0.804971 -0.189052 0 0 0 30.0862 
109.224 -0.80567 0 -0.80567 -0.426325 0 0 0 29.9711 
109.101 -0.74653 0 -0.74653 -0.581951 0 0 0 29.8881 
108.999 -0.647461 0 -0.647461 -0.680483 0 0 0 29.8294 
108.917 -0.522695 0 -0.522695 -0.740209 0 0 0 29.789 
108.857 -0.382098 0 -0.382098 -0.774441 0 0 0 29.7624 
108.816 -0.23234 0 -0.23234 -0.792433 0 0 0 29.7463 
108.796 -0.0779191 0 -0.0779191 -0.800019 0 0 0 29.7388 
99.0329 9.25142 0 9.25142 36.882 0 0 0 39.3634 
102.033 8.83338 0 8.83338 30.2092 0 0 0 38.0565 
104.708 7.84846 0 7.84846 23.8685 0 0 0 36.7418 
106.868 6.47344 0 6.47344 18.2538 0 0 0 35.501 
108.453 4.95517 0 4.95517 13.5624 0 0 0 34.39 