# vtk DataFile Version 2.0
Generated by inSilico's base::io::vtk::LegacyWriter
ASCII
DATASET UNSTRUCTURED_GRID
POINTS 441 float
0 0 0 
0.05 0 0 
0.1 0 0 
0.15 0 0 
0.2 0 0 
0.25 0 0 
0.3 0 0 
0.35 0 0 
0.4 0 0 
0.45 0 0 
0.5 0 0 
0.55 0 0 
0.6 0 0 
0.65 0 0 
0.7 0 0 
0.75 0 0 
0.8 0 0 
0.85 0 0 
0.9 0 0 
0.95 0 0 
1 0 0 
0 0.05 0 
0.05 0.05 0 
0.1 0.05 0 
0.15 0.05 0 
0.2 0.05 0 
0.25 0.05 0 
0.3 0.05 0 
0.35 0.05 0 
0.4 0.05 0 
0.45 0.05 0 
0.5 0.05 0 
0.55 0.05 0 
0.6 0.05 0 
0.65 0.05 0 
0.7 0.05 0 
0.75 0.05 0 
0.8 0.05 0 
0.85 0.05 0 
0.9 0.05 0 
0.95 0.05 0 
1 0.05 0 
0 0.1 0 
0.05 0.1 0 
0.1 0.1 0 
0.15 0.1 0 
0.2 0.1 0 
0.25 0.1 0 
0.3 0.1 0 
0.35 0.1 0 
0.4 0.1 0 
0.45 0.1 0 
0.5 0.1 0 
0.55 0.1 0 
0.6 0.1 0 
0.65 0.1 0 
0.7 0.1 0 
0.75 0.1 0 
0.8 0.1 0 
0.85 0.1 0 
0.9 0.1 0 
0.95 0.1 0 
1 0.1 0 
0 0.15 0 
0.05 0.15 0 
0.1 0.15 0 
0.15 0.15 0 
0.2 0.15 0 
0.25 0.15 0 
0.3 0.15 0 
0.35 0.15 0 
0.4 0.15 0 
0.45 0.15 0 
0.5 0.15 0 
0.55 0.15 0 
0.6 0.15 0 
0.65 0.15 0 
0.7 0.15 0 
0.75 0.15 0 
0.8 0.15 0 
0.85 0.15 0 
0.9 0.15 0 
0.95 0.15 0 
1 0.15 0 
0 0.2 0 
0.05 0.2 0 
0.1 0.2 0 
0.15 0.2 0 
0.2 0.2 0 
0.25 0.2 0 
0.3 0.2 0 
0.35 0.2 0 
0.4 0.2 0 
0.45 0.2 0 
0.5 0.2 0 
0.55 0.2 0 
0.6 0.2 0 
0.65 0.2 0 
0.7 0.2 0 
0.75 0.2 0 
0.8 0.2 0 
0.85 0.2 0 
0.9 0.2 0 
0.95 0.2 0 
1 0.2 0 
0 0.25 0 
0.05 0.25 0 
0.1 0.25 0 
0.15 0.25 0 
0.2 0.25 0 
0.25 0.25 0 
0.3 0.25 0 
0.35 0.25 0 
0.4 0.25 0 
0.45 0.25 0 
0.5 0.25 0 
0.55 0.25 0 
0.6 0.25 0 
0.65 0.25 0 
0.7 0.25 0 
0.75 0.25 0 
0.8 0.25 0 
0.85 0.25 0 
0.9 0.25 0 
0.95 0.25 0 
1 0.25 0 
0 0.3 0 
0.05 0.3 0 
0.1 0.3 0 
0.15 0.3 0 
0.2 0.3 0 
0.25 0.3 0 
0.3 0.3 0 
0.35 0.3 0 
0.4 0.3 0 
0.45 0.3 0 
0.5 0.3 0 
0.55 0.3 0 
0.6 0.3 0 
0.65 0.3 0 
0.7 0.3 0 
0.75 0.3 0 
0.8 0.3 0 
0.85 0.3 0 
0.9 0.3 0 
0.95 0.3 0 
1 0.3 0 
0 0.35 0 
0.05 0.35 0 
0.1 0.35 0 
0.15 0.35 0 
0.2 0.35 0 
0.25 0.35 0 
0.3 0.35 0 
0.35 0.35 0 
0.4 0.35 0 
0.45 0.35 0 
0.5 0.35 0 
0.55 0.35 0 
0.6 0.35 0 
0.65 0.35 0 
0.7 0.35 0 
0.75 0.35 0 
0.8 0.35 0 
0.85 0.35 0 
0.9 0.35 0 
0.95 0.35 0 
1 0.35 0 
0 0.4 0 
0.05 0.4 0 
0.1 0.4 0 
0.15 0.4 0 
0.2 0.4 0 
0.25 0.4 0 
0.3 0.4 0 
0.35 0.4 0 
0.4 0.4 0 
0.45 0.4 0 
0.5 0.4 0 
0.55 0.4 0 
0.6 0.4 0 
0.65 0.4 0 
0.7 0.4 0 
0.75 0.4 0 
0.8 0.4 0 
0.85 0.4 0 
0.9 0.4 0 
0.95 0.4 0 
1 0.4 0 
0 0.45 0 
0.05 0.45 0 
0.1 0.45 0 
0.15 0.45 0 
0.2 0.45 0 
0.25 0.45 0 
0.3 0.45 0 
0.35 0.45 0 
0.4 0.45 0 
0.45 0.45 0 
0.5 0.45 0 
0.55 0.45 0 
0.6 0.45 0 
0.65 0.45 0 
0.7 0.45 0 
0.75 0.45 0 
0.8 0.45 0 
0.85 0.45 0 
0.9 0.45 0 
0.95 0.45 0 
1 0.45 0 
0 0.5 0 
0.05 0.5 0 
0.1 0.5 0 
0.15 0.5 0 
0.2 0.5 0 
0.25 0.5 0 
0.3 0.5 0 
0.35 0.5 0 
0.4 0.5 0 
0.45 0.5 0 
0.5 0.5 0 
0.55 0.5 0 
0.6 0.5 0 
0.65 0.5 0 
0.7 0.5 0 
0.75 0.5 0 
0.8 0.5 0 
0.85 0.5 0 
0.9 0.5 0 
0.95 0.5 0 
1 0.5 0 
0 0.55 0 
0.05 0.55 0 
0.1 0.55 0 
0.15 0.55 0 
0.2 0.55 0 
0.25 0.55 0 
0.3 0.55 0 
0.35 0.55 0 
0.4 0.55 0 
0.45 0.55 0 
0.5 0.55 0 
0.55 0.55 0 
0.6 0.55 0 
0.65 0.55 0 
0.7 0.55 0 
0.75 0.55 0 
0.8 0.55 0 
0.85 0.55 0 
0.9 0.55 0 
0.95 0.55 0 
1 0.55 0 
0 0.6 0 
0.05 0.6 0 
0.1 0.6 0 
0.15 0.6 0 
0.2 0.6 0 
0.25 0.6 0 
0.3 0.6 0 
0.35 0.6 0 
0.4 0.6 0 
0.45 0.6 0 
0.5 0.6 0 
0.55 0.6 0 
0.6 0.6 0 
0.65 0.6 0 
0.7 0.6 0 
0.75 0.6 0 
0.8 0.6 0 
0.85 0.6 0 
0.9 0.6 0 
0.95 0.6 0 
1 0.6 0 
0 0.65 0 
0.05 0.65 0 
0.1 0.65 0 
0.15 0.65 0 
0.2 0.65 0 
0.25 0.65 0 
0.3 0.65 0 
0.35 0.65 0 
0.4 0.65 0 
0.45 0.65 0 
0.5 0.65 0 
0.55 0.65 0 
0.6 0.65 0 
0.65 0.65 0 
0.7 0.65 0 
0.75 0.65 0 
0.8 0.65 0 
0.85 0.65 0 
0.9 0.65 0 
0.95 0.65 0 
1 0.65 0 
0 0.7 0 
0.05 0.7 0 
0.1 0.7 0 
0.15 0.7 0 
0.2 0.7 0 
0.25 0.7 0 
0.3 0.7 0 
0.35 0.7 0 
0.4 0.7 0 
0.45 0.7 0 
0.5 0.7 0 
0.55 0.7 0 
0.6 0.7 0 
0.65 0.7 0 
0.7 0.7 0 
0.75 0.7 0 
0.8 0.7 0 
0.85 0.7 0 
0.9 0.7 0 
0.95 0.7 0 
1 0.7 0 
0 0.75 0 
0.05 0.75 0 
0.1 0.75 0 
0.15 0.75 0 
0.2 0.75 0 
0.25 0.75 0 
0.3 0.75 0 
0.35 0.75 0 
0.4 0.75 0 
0.45 0.75 0 
0.5 0.75 0 
0.55 0.75 0 
0.6 0.75 0 
0.65 0.75 0 
0.7 0.75 0 
0.75 0.75 0 
0.8 0.75 0 
0.85 0.75 0 
0.9 0.75 0 
0.95 0.75 0 
1 0.75 0 
0 0.8 0 
0.05 0.8 0 
0.1 0.8 0 
0.15 0.8 0 
0.2 0.8 0 
0.25 0.8 0 
0.3 0.8 0 
0.35 0.8 0 
0.4 0.8 0 
0.45 0.8 0 
0.5 0.8 0 
0.55 0.8 0 
0.6 0.8 0 
0.65 0.8 0 
0.7 0.8 0 
0.75 0.8 0 
0.8 0.8 0 
0.85 0.8 0 
0.9 0.8 0 
0.95 0.8 0 
1 0.8 0 
0 0.85 0 
0.05 0.85 0 
0.1 0.85 0 
0.15 0.85 0 
0.2 0.85 0 
0.25 0.85 0 
0.3 0.85 0 
0.35 0.85 0 
0.4 0.85 0 
0.45 0.85 0 
0.5 0.85 0 
0.55 0.85 0 
0.6 0.85 0 
0.65 0.85 0 
0.7 0.85 0 
0.75 0.85 0 
0.8 0.85 0 
0.85 0.85 0 
0.9 0.85 0 
0.95 0.85 0 
1 0.85 0 
0 0.9 0 
0.05 0.9 0 
0.1 0.9 0 
0.15 0.9 0 
0.2 0.9 0 
0.25 0.9 0 
0.3 0.9 0 
0.35 0.9 0 
0.4 0.9 0 
0.45 0.9 0 
0.5 0.9 0 
0.55 0.9 0 
0.6 0.9 0 
0.65 0.9 0 
0.7 0.9 0 
0.75 0.9 0 
0.8 0.9 0 
0.85 0.9 0 
0.9 0.9 0 
0.95 0.9 0 
1 0.9 0 
0 0.95 0 
0.05 0.95 0 
0.1 0.95 0 
0.15 0.95 0 
0.2 0.95 0 
0.25 0.95 0 
0.3 0.95 0 
0.35 0.95 0 
0.4 0.95 0 
0.45 0.95 0 
0.5 0.95 0 
0.55 0.95 0 
0.6 0.95 0 
0.65 0.95 0 
0.7 0.95 0 
0.75 0.95 0 
0.8 0.95 0 
0.85 0.95 0 
0.9 0.95 0 
0.95 0.95 0 
1 0.95 0 
0 1 0 
0.05 1 0 
0.1 1 0 
0.15 1 0 
0.2 1 0 
0.25 1 0 
0.3 1 0 
0.35 1 0 
0.4 1 0 
0.45 1 0 
0.5 1 0 
0.55 1 0 
0.6 1 0 
0.65 1 0 
0.7 1 0 
0.75 1 0 
0.8 1 0 
0.85 1 0 
0.9 1 0 
0.95 1 0 
1 1 0 
CELLS 400 2000
4 0 1 22 21 
4 1 2 23 22 
4 2 3 24 23 
4 3 4 25 24 
4 4 5 26 25 
4 5 6 27 26 
4 6 7 28 27 
4 7 8 29 28 
4 8 9 30 29 
4 9 10 31 30 
4 10 11 32 31 
4 11 12 33 32 
4 12 13 34 33 
4 13 14 35 34 
4 14 15 36 35 
4 15 16 37 36 
4 16 17 38 37 
4 17 18 39 38 
4 18 19 40 39 
4 19 20 41 40 
4 21 22 43 42 
4 22 23 44 43 
4 23 24 45 44 
4 24 25 46 45 
4 25 26 47 46 
4 26 27 48 47 
4 27 28 49 48 
4 28 29 50 49 
4 29 30 51 50 
4 30 31 52 51 
4 31 32 53 52 
4 32 33 54 53 
4 33 34 55 54 
4 34 35 56 55 
4 35 36 57 56 
4 36 37 58 57 
4 37 38 59 58 
4 38 39 60 59 
4 39 40 61 60 
4 40 41 62 61 
4 42 43 64 63 
4 43 44 65 64 
4 44 45 66 65 
4 45 46 67 66 
4 46 47 68 67 
4 47 48 69 68 
4 48 49 70 69 
4 49 50 71 70 
4 50 51 72 71 
4 51 52 73 72 
4 52 53 74 73 
4 53 54 75 74 
4 54 55 76 75 
4 55 56 77 76 
4 56 57 78 77 
4 57 58 79 78 
4 58 59 80 79 
4 59 60 81 80 
4 60 61 82 81 
4 61 62 83 82 
4 63 64 85 84 
4 64 65 86 85 
4 65 66 87 86 
4 66 67 88 87 
4 67 68 89 88 
4 68 69 90 89 
4 69 70 91 90 
4 70 71 92 91 
4 71 72 93 92 
4 72 73 94 93 
4 73 74 95 94 
4 74 75 96 95 
4 75 76 97 96 
4 76 77 98 97 
4 77 78 99 98 
4 78 79 100 99 
4 79 80 101 100 
4 80 81 102 101 
4 81 82 103 102 
4 82 83 104 103 
4 84 85 106 105 
4 85 86 107 106 
4 86 87 108 107 
4 87 88 109 108 
4 88 89 110 109 
4 89 90 111 110 
4 90 91 112 111 
4 91 92 113 112 
4 92 93 114 113 
4 93 94 115 114 
4 94 95 116 115 
4 95 96 117 116 
4 96 97 118 117 
4 97 98 119 118 
4 98 99 120 119 
4 99 100 121 120 
4 100 101 122 121 
4 101 102 123 122 
4 102 103 124 123 
4 103 104 125 124 
4 105 106 127 126 
4 106 107 128 127 
4 107 108 129 128 
4 108 109 130 129 
4 109 110 131 130 
4 110 111 132 131 
4 111 112 133 132 
4 112 113 134 133 
4 113 114 135 134 
4 114 115 136 135 
4 115 116 137 136 
4 116 117 138 137 
4 117 118 139 138 
4 118 119 140 139 
4 119 120 141 140 
4 120 121 142 141 
4 121 122 143 142 
4 122 123 144 143 
4 123 124 145 144 
4 124 125 146 145 
4 126 127 148 147 
4 127 128 149 148 
4 128 129 150 149 
4 129 130 151 150 
4 130 131 152 151 
4 131 132 153 152 
4 132 133 154 153 
4 133 134 155 154 
4 134 135 156 155 
4 135 136 157 156 
4 136 137 158 157 
4 137 138 159 158 
4 138 139 160 159 
4 139 140 161 160 
4 140 141 162 161 
4 141 142 163 162 
4 142 143 164 163 
4 143 144 165 164 
4 144 145 166 165 
4 145 146 167 166 
4 147 148 169 168 
4 148 149 170 169 
4 149 150 171 170 
4 150 151 172 171 
4 151 152 173 172 
4 152 153 174 173 
4 153 154 175 174 
4 154 155 176 175 
4 155 156 177 176 
4 156 157 178 177 
4 157 158 179 178 
4 158 159 180 179 
4 159 160 181 180 
4 160 161 182 181 
4 161 162 183 182 
4 162 163 184 183 
4 163 164 185 184 
4 164 165 186 185 
4 165 166 187 186 
4 166 167 188 187 
4 168 169 190 189 
4 169 170 191 190 
4 170 171 192 191 
4 171 172 193 192 
4 172 173 194 193 
4 173 174 195 194 
4 174 175 196 195 
4 175 176 197 196 
4 176 177 198 197 
4 177 178 199 198 
4 178 179 200 199 
4 179 180 201 200 
4 180 181 202 201 
4 181 182 203 202 
4 182 183 204 203 
4 183 184 205 204 
4 184 185 206 205 
4 185 186 207 206 
4 186 187 208 207 
4 187 188 209 208 
4 189 190 211 210 
4 190 191 212 211 
4 191 192 213 212 
4 192 193 214 213 
4 193 194 215 214 
4 194 195 216 215 
4 195 196 217 216 
4 196 197 218 217 
4 197 198 219 218 
4 198 199 220 219 
4 199 200 221 220 
4 200 201 222 221 
4 201 202 223 222 
4 202 203 224 223 
4 203 204 225 224 
4 204 205 226 225 
4 205 206 227 226 
4 206 207 228 227 
4 207 208 229 228 
4 208 209 230 229 
4 210 211 232 231 
4 211 212 233 232 
4 212 213 234 233 
4 213 214 235 234 
4 214 215 236 235 
4 215 216 237 236 
4 216 217 238 237 
4 217 218 239 238 
4 218 219 240 239 
4 219 220 241 240 
4 220 221 242 241 
4 221 222 243 242 
4 222 223 244 243 
4 223 224 245 244 
4 224 225 246 245 
4 225 226 247 246 
4 226 227 248 247 
4 227 228 249 248 
4 228 229 250 249 
4 229 230 251 250 
4 231 232 253 252 
4 232 233 254 253 
4 233 234 255 254 
4 234 235 256 255 
4 235 236 257 256 
4 236 237 258 257 
4 237 238 259 258 
4 238 239 260 259 
4 239 240 261 260 
4 240 241 262 261 
4 241 242 263 262 
4 242 243 264 263 
4 243 244 265 264 
4 244 245 266 265 
4 245 246 267 266 
4 246 247 268 267 
4 247 248 269 268 
4 248 249 270 269 
4 249 250 271 270 
4 250 251 272 271 
4 252 253 274 273 
4 253 254 275 274 
4 254 255 276 275 
4 255 256 277 276 
4 256 257 278 277 
4 257 258 279 278 
4 258 259 280 279 
4 259 260 281 280 
4 260 261 282 281 
4 261 262 283 282 
4 262 263 284 283 
4 263 264 285 284 
4 264 265 286 285 
4 265 266 287 286 
4 266 267 288 287 
4 267 268 289 288 
4 268 269 290 289 
4 269 270 291 290 
4 270 271 292 291 
4 271 272 293 292 
4 273 274 295 294 
4 274 275 296 295 
4 275 276 297 296 
4 276 277 298 297 
4 277 278 299 298 
4 278 279 300 299 
4 279 280 301 300 
4 280 281 302 301 
4 281 282 303 302 
4 282 283 304 303 
4 283 284 305 304 
4 284 285 306 305 
4 285 286 307 306 
4 286 287 308 307 
4 287 288 309 308 
4 288 289 310 309 
4 289 290 311 310 
4 290 291 312 311 
4 291 292 313 312 
4 292 293 314 313 
4 294 295 316 315 
4 295 296 317 316 
4 296 297 318 317 
4 297 298 319 318 
4 298 299 320 319 
4 299 300 321 320 
4 300 301 322 321 
4 301 302 323 322 
4 302 303 324 323 
4 303 304 325 324 
4 304 305 326 325 
4 305 306 327 326 
4 306 307 328 327 
4 307 308 329 328 
4 308 309 330 329 
4 309 310 331 330 
4 310 311 332 331 
4 311 312 333 332 
4 312 313 334 333 
4 313 314 335 334 
4 315 316 337 336 
4 316 317 338 337 
4 317 318 339 338 
4 318 319 340 339 
4 319 320 341 340 
4 320 321 342 341 
4 321 322 343 342 
4 322 323 344 343 
4 323 324 345 344 
4 324 325 346 345 
4 325 326 347 346 
4 326 327 348 347 
4 327 328 349 348 
4 328 329 350 349 
4 329 330 351 350 
4 330 331 352 351 
4 331 332 353 352 
4 332 333 354 353 
4 333 334 355 354 
4 334 335 356 355 
4 336 337 358 357 
4 337 338 359 358 
4 338 339 360 359 
4 339 340 361 360 
4 340 341 362 361 
4 341 342 363 362 
4 342 343 364 363 
4 343 344 365 364 
4 344 345 366 365 
4 345 346 367 366 
4 346 347 368 367 
4 347 348 369 368 
4 348 349 370 369 
4 349 350 371 370 
4 350 351 372 371 
4 351 352 373 372 
4 352 353 374 373 
4 353 354 375 374 
4 354 355 376 375 
4 355 356 377 376 
4 357 358 379 378 
4 358 359 380 379 
4 359 360 381 380 
4 360 361 382 381 
4 361 362 383 382 
4 362 363 384 383 
4 363 364 385 384 
4 364 365 386 385 
4 365 366 387 386 
4 366 367 388 387 
4 367 368 389 388 
4 368 369 390 389 
4 369 370 391 390 
4 370 371 392 391 
4 371 372 393 392 
4 372 373 394 393 
4 373 374 395 394 
4 374 375 396 395 
4 375 376 397 396 
4 376 377 398 397 
4 378 379 400 399 
4 379 380 401 400 
4 380 381 402 401 
4 381 382 403 402 
4 382 383 404 403 
4 383 384 405 404 
4 384 385 406 405 
4 385 386 407 406 
4 386 387 408 407 
4 387 388 409 408 
4 388 389 410 409 
4 389 390 411 410 
4 390 391 412 411 
4 391 392 413 412 
4 392 393 414 413 
4 393 394 415 414 
4 394 395 416 415 
4 395 396 417 416 
4 396 397 418 417 
4 397 398 419 418 
4 399 400 421 420 
4 400 401 422 421 
4 401 402 423 422 
4 402 403 424 423 
4 403 404 425 424 
4 404 405 426 425 
4 405 406 427 426 
4 406 407 428 427 
4 407 408 429 428 
4 408 409 430 429 
4 409 410 431 430 
4 410 411 432 431 
4 411 412 433 432 
4 412 413 434 433 
4 413 414 435 434 
4 414 415 436 435 
4 415 416 437 436 
4 416 417 438 437 
4 417 418 439 438 
4 418 419 440 439 
CELL_TYPES 400
9
9
9
9
9
9
9
9
9
9
9
9
9
9
9
9
9
9
9
9
9
9
9
9
9
9
9
9
9
9
9
9
9
9
9
9
9
9
9
9
9
9
9
9
9
9
9
9
9
9
9
9
9
9
9
9
9
9
9
9
9
9
9
9
9
9
9
9
9
9
9
9
9
9
9
9
9
9
9
9
9
9
9
9
9
9
9
9
9
9
9
9
9
9
9
9
9
9
9
9
9
9
9
9
9
9
9
9
9
9
9
9
9
9
9
9
9
9
9
9
9
9
9
9
9
9
9
9
9
9
9
9
9
9
9
9
9
9
9
9
9
9
9
9
9
9
9
9
9
9
9
9
9
9
9
9
9
9
9
9
9
9
9
9
9
9
9
9
9
9
9
9
9
9
9
9
9
9
9
9
9
9
9
9
9
9
9
9
9
9
9
9
9
9
9
9
9
9
9
9
9
9
9
9
9
9
9
9
9
9
9
9
9
9
9
9
9
9
9
9
9
9
9
9
9
9
9
9
9
9
9
9
9
9
9
9
9
9
9
9
9
9
9
9
9
9
9
9
9
9
9
9
9
9
9
9
9
9
9
9
9
9
9
9
9
9
9
9
9
9
9
9
9
9
9
9
9
9
9
9
9
9
9
9
9
9
9
9
9
9
9
9
9
9
9
9
9
9
9
9
9
9
9
9
9
9
9
9
9
9
9
9
9
9
9
9
9
9
9
9
9
9
9
9
9
9
9
9
9
9
9
9
9
9
9
9
9
9
9
9
9
9
9
9
9
9
9
9
9
9
9
9
9
9
9
9
9
9
9
9
9
9
9
9
9
9
9
9
9
9
9
9
9
9
9
9
9
9
9
9
9
9
9
9
9
9
9
9
9
9
9
9
9
9
9
9
9
9
9
9
POINT_DATA 441
VECTORS disp float 
0 0 0 
0.0262284 0.0259876 0 
0.0475092 0.0405902 0 
0.0676976 0.0505975 0 
0.0876122 0.0578771 0 
0.107543 0.0632882 0 
0.127615 0.0673406 0 
0.147881 0.070378 0 
0.168358 0.0726478 0 
0.189044 0.074335 0 
0.209924 0.0755804 0 
0.23098 0.0764919 0 
0.25219 0.0771527 0 
0.273531 0.0776266 0 
0.294983 0.0779621 0 
0.316525 0.0781962 0 
0.338139 0.0783563 0 
0.359808 0.0784625 0 
0.381517 0.0785291 0 
0.403252 0.0785655 0 
0.425 0.078577 0 
0 0 0 
0.0201596 0.0187876 0 
0.0418965 0.0329473 0 
0.0631369 0.0430805 0 
0.084009 0.0504599 0 
0.104727 0.0559061 0 
0.125428 0.059949 0 
0.146193 0.0629512 0 
0.167063 0.0651736 0 
0.188056 0.0668096 0 
0.209176 0.0680047 0 
0.230417 0.0688699 0 
0.25177 0.0694897 0 
0.27322 0.0699284 0 
0.294756 0.0702345 0 
0.316361 0.0704447 0 
0.338024 0.0705861 0 
0.359731 0.0706783 0 
0.38147 0.0707351 0 
0.40323 0.0707657 0 
0.425 0.0707754 0 
0 0 0 
0.0184955 0.0143823 0 
0.0388864 0.0267085 0 
0.0599266 0.0362151 0 
0.0810628 0.0433507 0 
0.102183 0.0486713 0 
0.1233 0.0526259 0 
0.144445 0.0555531 0 
0.165647 0.0577076 0 
0.186921 0.0592818 0 
0.208275 0.0604217 0 
0.229708 0.0612386 0 
0.251217 0.061817 0 
0.272794 0.0622209 0 
0.294431 0.0624986 0 
0.316118 0.062686 0 
0.337847 0.0628096 0 
0.359607 0.0628885 0 
0.381392 0.0629363 0 
0.403192 0.0629616 0 
0.425 0.0629695 0 
0 0 0 
0.017859 0.0113759 0 
0.0373586 0.0216595 0 
0.0578736 0.0300978 0 
0.0788738 0.0366782 0 
0.100089 0.041684 0 
0.121411 0.0454383 0 
0.142802 0.0482245 0 
0.164252 0.0502721 0 
0.185757 0.0517617 0 
0.207318 0.0528335 0 
0.228932 0.0535952 0 
0.250595 0.0541291 0 
0.272302 0.0544974 0 
0.294048 0.0547469 0 
0.315825 0.0549124 0 
0.337629 0.0550194 0 
0.359454 0.0550863 0 
0.381295 0.0551258 0 
0.403145 0.0551464 0 
0.425 0.0551528 0 
0 0 0 
0.0175658 0.00907844 0 
0.0365362 0.01749 0 
0.0565822 0.0246781 0 
0.0773179 0.0304808 0 
0.0984592 0.0349985 0 
0.119837 0.0384331 0 
0.141357 0.0409993 0 
0.162972 0.0428892 0 
0.184653 0.0442622 0 
0.206384 0.0452463 0 
0.228156 0.0459415 0 
0.24996 0.0464248 0 
0.27179 0.0467548 0 
0.293642 0.0469755 0 
0.315511 0.0471196 0 
0.337394 0.047211 0 
0.359287 0.0472669 0 
0.381187 0.0472992 0 
0.403092 0.0473157 0 
0.425 0.0473207 0 
0 0 0 
0.0174163 0.00718056 0 
0.036066 0.0139198 0 
0.0557606 0.0198285 0 
0.0762319 0.0247279 0 
0.0972333 0.0286248 0 
0.118581 0.0316317 0 
0.140151 0.0338985 0 
0.161863 0.0355754 0 
0.183667 0.0367949 0 
0.20553 0.0376676 0 
0.227431 0.0382816 0 
0.249356 0.038706 0 
0.271297 0.0389934 0 
0.293247 0.0391836 0 
0.315202 0.0393061 0 
0.33716 0.0393825 0 
0.359119 0.0394283 0 
0.381079 0.0394542 0 
0.40304 0.0394671 0 
0.425 0.039471 0 
0 0 0 
0.0173359 0.00552788 0 
0.0357855 0.0107544 0 
0.0552312 0.0154124 0 
0.0754825 0.0193501 0 
0.0963367 0.0225376 0 
0.117617 0.0250305 0 
0.139189 0.0269274 0 
0.160951 0.0283384 0 
0.182835 0.0293671 0 
0.204795 0.0301031 0 
0.226797 0.0306199 0 
0.248821 0.0309757 0 
0.270854 0.0312151 0 
0.292888 0.0313723 0 
0.314919 0.0314725 0 
0.336945 0.0315341 0 
0.358964 0.0315704 0 
0.380979 0.0315905 0 
0.402991 0.0316003 0 
0.425 0.0316032 0 
0 0 0 
0.0172915 0.00403255 0 
0.0356151 0.00786227 0 
0.0548905 0.0113113 0 
0.0749759 0.0142662 0 
0.0957035 0.0166899 0 
0.116912 0.0186065 0 
0.138462 0.0200768 0 
0.160245 0.0211763 0 
0.182179 0.0219803 0 
0.204204 0.0225561 0 
0.22628 0.02296 0 
0.24838 0.0232373 0 
0.270486 0.0234232 0 
0.292588 0.0235445 0 
0.314681 0.0236212 0 
0.336762 0.0236679 0 
0.358833 0.023695 0 
0.380894 0.0237097 0 
0.402949 0.0237168 0 
0.425 0.0237189 0 
0 0 0 
0.0172673 0.0026383 0 
0.0355138 0.0051506 0 
0.0546792 0.00742787 0 
0.0746505 0.00939595 0 
0.0952843 0.0110248 0 
0.116432 0.0123232 0 
0.137957 0.0133256 0 
0.159745 0.0140784 0 
0.181706 0.0146303 0 
0.203774 0.015026 0 
0.2259 0.0153035 0 
0.248053 0.0154938 0 
0.270211 0.015621 0 
0.292363 0.0157037 0 
0.314501 0.0157557 0 
0.336624 0.0157871 0 
0.358733 0.0158052 0 
0.380829 0.0158149 0 
0.402917 0.0158195 0 
0.425 0.0158208 0 
0 0 0 
0.0172553 0.00130482 0 
0.0354599 0.00254913 0 
0.0545637 0.00368103 0 
0.0744686 0.00466405 0 
0.0950454 0.00548191 0 
0.116154 0.00613698 0 
0.13766 0.00664464 0 
0.159447 0.00702702 0 
0.181422 0.00730784 0 
0.203513 0.00750933 0 
0.225668 0.00765066 0 
0.247852 0.00774749 0 
0.270042 0.00781215 0 
0.292223 0.00785409 0 
0.31439 0.00788037 0 
0.336538 0.00789617 0 
0.358671 0.0079052 0 
0.380789 0.00791002 0 
0.402897 0.0079123 0 
0.425 0.00791295 0 
0 0 0 
0.0172517 1.35017e-17 0 
0.035443 2.29948e-17 0 
0.0545269 3.58973e-17 0 
0.0744102 4.69561e-17 0 
0.0949678 5.71307e-17 0 
0.116063 7.02226e-17 0 
0.137562 9.10916e-17 0 
0.159348 1.00306e-16 0 
0.181327 1.07546e-16 0 
0.203426 1.16734e-16 0 
0.22559 1.46056e-16 0 
0.247785 1.58192e-16 0 
0.269985 1.79293e-16 0 
0.292176 1.93652e-16 0 
0.314352 2.03152e-16 0 
0.336509 2.37437e-16 0 
0.358649 2.56329e-16 0 
0.380775 2.69603e-16 0 
0.40289 2.85877e-16 0 
0.425 3.22116e-16 0 
0 0 0 
0.0172553 -0.00130482 0 
0.0354599 -0.00254913 0 
0.0545637 -0.00368103 0 
0.0744686 -0.00466405 0 
0.0950454 -0.00548191 0 
0.116154 -0.00613698 0 
0.13766 -0.00664464 0 
0.159447 -0.00702702 0 
0.181422 -0.00730784 0 
0.203513 -0.00750933 0 
0.225668 -0.00765066 0 
0.247852 -0.00774749 0 
0.270042 -0.00781215 0 
0.292223 -0.00785409 0 
0.31439 -0.00788037 0 
0.336538 -0.00789617 0 
0.358671 -0.0079052 0 
0.380789 -0.00791002 0 
0.402897 -0.0079123 0 
0.425 -0.00791295 0 
0 0 0 
0.0172673 -0.0026383 0 
0.0355138 -0.0051506 0 
0.0546792 -0.00742787 0 
0.0746505 -0.00939595 0 
0.0952843 -0.0110248 0 
0.116432 -0.0123232 0 
0.137957 -0.0133256 0 
0.159745 -0.0140784 0 
0.181706 -0.0146303 0 
0.203774 -0.015026 0 
0.2259 -0.0153035 0 
0.248053 -0.0154938 0 
0.270211 -0.015621 0 
0.292363 -0.0157037 0 
0.314501 -0.0157557 0 
0.336624 -0.0157871 0 
0.358733 -0.0158052 0 
0.380829 -0.0158149 0 
0.402917 -0.0158195 0 
0.425 -0.0158208 0 
0 0 0 
0.0172915 -0.00403255 0 
0.0356151 -0.00786227 0 
0.0548905 -0.0113113 0 
0.0749759 -0.0142662 0 
0.0957035 -0.0166899 0 
0.116912 -0.0186065 0 
0.138462 -0.0200768 0 
0.160245 -0.0211763 0 
0.182179 -0.0219803 0 
0.204204 -0.0225561 0 
0.22628 -0.02296 0 
0.24838 -0.0232373 0 
0.270486 -0.0234232 0 
0.292588 -0.0235445 0 
0.314681 -0.0236212 0 
0.336762 -0.0236679 0 
0.358833 -0.023695 0 
0.380894 -0.0237097 0 
0.402949 -0.0237168 0 
0.425 -0.0237189 0 
0 0 0 
0.0173359 -0.00552788 0 
0.0357855 -0.0107544 0 
0.0552312 -0.0154124 0 
0.0754825 -0.0193501 0 
0.0963367 -0.0225376 0 
0.117617 -0.0250305 0 
0.139189 -0.0269274 0 
0.160951 -0.0283384 0 
0.182835 -0.0293671 0 
0.204795 -0.0301031 0 
0.226797 -0.0306199 0 
0.248821 -0.0309757 0 
0.270854 -0.0312151 0 
0.292888 -0.0313723 0 
0.314919 -0.0314725 0 
0.336945 -0.0315341 0 
0.358964 -0.0315704 0 
0.380979 -0.0315905 0 
0.402991 -0.0316003 0 
0.425 -0.0316032 0 
0 0 0 
0.0174163 -0.00718056 0 
0.036066 -0.0139198 0 
0.0557606 -0.0198285 0 
0.0762319 -0.0247279 0 
0.0972333 -0.0286248 0 
0.118581 -0.0316317 0 
0.140151 -0.0338985 0 
0.161863 -0.0355754 0 
0.183667 -0.0367949 0 
0.20553 -0.0376676 0 
0.227431 -0.0382816 0 
0.249356 -0.038706 0 
0.271297 -0.0389934 0 
0.293247 -0.0391836 0 
0.315202 -0.0393061 0 
0.33716 -0.0393825 0 
0.359119 -0.0394283 0 
0.381079 -0.0394542 0 
0.40304 -0.0394671 0 
0.425 -0.039471 0 
0 0 0 
0.0175658 -0.00907844 0 
0.0365362 -0.01749 0 
0.0565822 -0.0246781 0 
0.0773179 -0.0304808 0 
0.0984592 -0.0349985 0 
0.119837 -0.0384331 0 
0.141357 -0.0409993 0 
0.162972 -0.0428892 0 
0.184653 -0.0442622 0 
0.206384 -0.0452463 0 
0.228156 -0.0459415 0 
0.24996 -0.0464248 0 
0.27179 -0.0467548 0 
0.293642 -0.0469755 0 
0.315511 -0.0471196 0 
0.337394 -0.047211 0 
0.359287 -0.0472669 0 
0.381187 -0.0472992 0 
0.403092 -0.0473157 0 
0.425 -0.0473207 0 
0 0 0 
0.017859 -0.0113759 0 
0.0373586 -0.0216595 0 
0.0578736 -0.0300978 0 
0.0788738 -0.0366782 0 
0.100089 -0.041684 0 
0.121411 -0.0454383 0 
0.142802 -0.0482245 0 
0.164252 -0.0502721 0 
0.185757 -0.0517617 0 
0.207318 -0.0528335 0 
0.228932 -0.0535952 0 
0.250595 -0.0541291 0 
0.272302 -0.0544974 0 
0.294048 -0.0547469 0 
0.315825 -0.0549124 0 
0.337629 -0.0550194 0 
0.359454 -0.0550863 0 
0.381295 -0.0551258 0 
0.403145 -0.0551464 0 
0.425 -0.0551528 0 
0 0 0 
0.0184955 -0.0143823 0 
0.0388864 -0.0267085 0 
0.0599266 -0.0362151 0 
0.0810628 -0.0433507 0 
0.102183 -0.0486713 0 
0.1233 -0.0526259 0 
0.144445 -0.0555531 0 
0.165647 -0.0577076 0 
0.186921 -0.0592818 0 
0.208275 -0.0604217 0 
0.229708 -0.0612386 0 
0.251217 -0.061817 0 
0.272794 -0.0622209 0 
0.294431 -0.0624986 0 
0.316118 -0.062686 0 
0.337847 -0.0628096 0 
0.359607 -0.0628885 0 
0.381392 -0.0629363 0 
0.403192 -0.0629616 0 
0.425 -0.0629695 0 
0 0 0 
0.0201596 -0.0187876 0 
0.0418965 -0.0329473 0 
0.0631369 -0.0430805 0 
0.084009 -0.0504599 0 
0.104727 -0.0559061 0 
0.125428 -0.059949 0 
0.146193 -0.0629512 0 
0.167063 -0.0651736 0 
0.188056 -0.0668096 0 
0.209176 -0.0680047 0 
0.230417 -0.0688699 0 
0.25177 -0.0694897 0 
0.27322 -0.0699284 0 
0.294756 -0.0702345 0 
0.316361 -0.0704447 0 
0.338024 -0.0705861 0 
0.359731 -0.0706783 0 
0.38147 -0.0707351 0 
0.40323 -0.0707657 0 
0.425 -0.0707754 0 
0 0 0 
0.0262284 -0.0259876 0 
0.0475092 -0.0405902 0 
0.0676976 -0.0505975 0 
0.0876122 -0.0578771 0 
0.107543 -0.0632882 0 
0.127615 -0.0673406 0 
0.147881 -0.070378 0 
0.168358 -0.0726478 0 
0.189044 -0.074335 0 
0.209924 -0.0755804 0 
0.23098 -0.0764919 0 
0.25219 -0.0771527 0 
0.273531 -0.0776266 0 
0.294983 -0.0779621 0 
0.316525 -0.0781962 0 
0.338139 -0.0783563 0 
0.359808 -0.0784625 0 
0.381517 -0.0785291 0 
0.403252 -0.0785655 0 
0.425 -0.078577 0 
CELL_DATA 400
TENSORS sigma float 
460.097 178.732 0 178.732 92.1636 0 0 0 112.88 
430.84 96.5075 0 96.5075 31.1319 0 0 0 98.4707 
412.947 61.9978 0 61.9978 14.9258 0 0 0 92.7738 
405.043 42.9936 0 42.9936 8.33912 0 0 0 90.2218 
402.593 30.848 0 30.848 5.04108 0 0 0 89.1037 
403.042 22.4533 0 22.4533 3.19469 0 0 0 88.7131 
405 16.4054 0 16.4054 2.08755 0 0 0 88.7063 
407.673 11.9556 0 11.9556 1.39109 0 0 0 88.8985 
410.593 8.65263 0 8.65263 0.936697 0 0 0 89.1848 
413.483 6.19814 0 6.19814 0.631524 0 0 0 89.5042 
416.184 4.38175 0 4.38175 0.421805 0 0 0 89.8214 
418.61 3.04841 0 3.04841 0.275146 0 0 0 90.1167 
420.723 2.08075 0 2.08075 0.171344 0 0 0 90.3801 
422.516 1.38865 0 1.38865 0.0973943 0 0 0 90.607 
423.998 0.902436 0 0.902436 0.0446823 0 0 0 90.7968 
425.187 0.568092 0 0.568092 0.00736221 0 0 0 90.9505 
426.105 0.343565 0 0.343565 -0.0185924 0 0 0 91.0698 
426.773 0.195854 0 0.195854 -0.0359545 0 0 0 91.1571 
427.208 0.0985605 0 0.0985605 -0.0465826 0 0 0 91.2141 
427.422 0.0297804 0 0.0297804 -0.051623 0 0 0 91.2422 
394.722 129.809 0 129.809 122.216 0 0 0 121.506 
418.776 102.094 0 102.094 59.5146 0 0 0 106.878 
419.116 69.9133 0 69.9133 31.3007 0 0 0 99.5046 
415.84 47.8409 0 47.8409 18.2374 0 0 0 95.491 
413.608 33.1148 0 33.1148 11.4612 0 0 0 93.2114 
412.906 23.0459 0 23.0459 7.57392 0 0 0 91.9074 
413.377 16.0047 0 16.0047 5.16687 0 0 0 91.1819 
414.594 11.0157 0 11.0157 3.58978 0 0 0 90.8082 
416.216 7.46465 0 7.46465 2.51312 0 0 0 90.6493 
417.996 4.94378 0 4.94378 1.75656 0 0 0 90.6195 
419.773 3.16994 0 3.16994 1.21471 0 0 0 90.6639 
421.442 1.94039 0 1.94039 0.822336 0 0 0 90.7472 
422.944 1.10708 0 1.10708 0.536902 0 0 0 90.847 
424.251 0.560779 0 0.560779 0.32944 0 0 0 90.9488 
425.352 0.220562 0 0.220562 0.179555 0 0 0 91.044 
426.248 0.0264539 0 0.0264539 0.0725778 0 0 0 91.1272 
426.948 -0.065981 0 -0.065981 -0.00211848 0 0 0 91.1956 
427.461 -0.0897876 0 -0.0897876 -0.0521491 0 0 0 91.2476 
427.797 -0.069907 0 -0.069907 -0.082769 0 0 0 91.2825 
427.964 -0.0258739 0 -0.0258739 -0.0972814 0 0 0 91.2999 
374.782 100.723 0 100.723 123.011 0 0 0 122.325 
400.376 88.9833 0 88.9833 77.8606 0 0 0 112.269 
413.016 68.081 0 68.081 47.2996 0 0 0 104.914 
417.231 48.955 0 48.955 29.4976 0 0 0 100.066 
418.378 34.3013 0 34.3013 19.125 0 0 0 96.9124 
418.821 23.6475 0 23.6475 12.8153 0 0 0 94.8517 
419.346 16.0313 0 16.0313 8.78376 0 0 0 93.5019 
420.118 10.6316 0 10.6316 6.09572 0 0 0 92.6218 
421.095 6.83603 0 6.83603 4.24373 0 0 0 92.0562 
422.184 4.20034 0 4.20034 2.93818 0 0 0 91.7022 
423.298 2.40227 0 2.40227 2.00458 0 0 0 91.49 
424.367 1.20682 0 1.20682 1.33215 0 0 0 91.3719 
425.348 0.442088 0 0.442088 0.847125 0 0 0 91.3148 
426.214 -0.0176528 0 -0.0176528 0.49843 0 0 0 91.2956 
426.952 -0.264027 0 -0.264027 0.249703 0 0 0 91.2986 
427.559 -0.363403 0 -0.363403 0.0746245 0 0 0 91.3129 
428.036 -0.363546 0 -0.363546 -0.0459106 0 0 0 91.331 
428.388 -0.298713 0 -0.298713 -0.125584 0 0 0 91.3481 
428.619 -0.193656 0 -0.193656 -0.173813 0 0 0 91.3609 
428.733 -0.0668409 0 -0.0668409 -0.196505 0 0 0 91.3678 
366.477 79.9183 0 79.9183 120.969 0 0 0 122.481 
388.89 73.9726 0 73.9726 86.617 0 0 0 115.048 
404.903 60.816 0 60.816 58.8507 0 0 0 108.6 
414.099 46.2025 0 46.2025 39.5285 0 0 0 103.655 
418.911 33.4194 0 33.4194 26.7634 0 0 0 100.043 
421.471 23.343 0 23.343 18.3464 0 0 0 97.4504 
423 15.7998 0 15.7998 12.6976 0 0 0 95.6034 
424.084 10.3244 0 10.3244 8.82279 0 0 0 94.2935 
424.977 6.44264 0 6.44264 6.11372 0 0 0 93.3697 
425.77 3.75366 0 3.75366 4.1935 0 0 0 92.7233 
426.493 1.94071 0 1.94071 2.82151 0 0 0 92.2762 
427.145 0.761486 0 0.761486 1.83855 0 0 0 91.9715 
427.723 0.0341902 0 0.0341902 1.13552 0 0 0 91.7677 
428.223 -0.37562 0 -0.37562 0.635564 0 0 0 91.6347 
428.643 -0.566031 0 -0.566031 0.283394 0 0 0 91.5504 
428.986 -0.607662 0 -0.607662 0.0388649 0 0 0 91.499 
429.254 -0.5507 0 -0.5507 -0.127145 0 0 0 91.469 
429.45 -0.430468 0 -0.430468 -0.235432 0 0 0 91.4525 
429.579 -0.271826 0 -0.271826 -0.300254 0 0 0 91.4442 
429.643 -0.0927393 0 -0.0927393 -0.330524 0 0 0 91.4409 
362.478 63.4715 0 63.4715 119.171 0 0 0 122.64 
382.015 60.0374 0 60.0374 91.1226 0 0 0 116.663 
398.274 51.5448 0 51.5448 66.5424 0 0 0 111.057 
409.841 40.9075 0 40.9075 47.419 0 0 0 106.318 
417.322 30.5983 0 30.5983 33.4726 0 0 0 102.543 
421.965 21.8391 0 21.8391 23.561 0 0 0 99.6303 
424.838 14.9402 0 14.9402 16.5516 0 0 0 97.4248 
426.653 9.76691 0 9.76691 11.576 0 0 0 95.7746 
427.84 6.02867 0 6.02867 8.02442 0 0 0 94.5515 
428.645 3.41538 0 3.41538 5.47926 0 0 0 93.6528 
429.21 1.65166 0 1.65166 3.65348 0 0 0 92.9984 
429.617 0.512289 0 0.512289 2.34664 0 0 0 92.5266 
429.914 -0.178498 0 -0.178498 1.41619 0 0 0 92.1902 
430.133 -0.553631 0 -0.553631 0.759207 0 0 0 91.9534 
430.294 -0.711218 0 -0.711218 0.300615 0 0 0 91.789 
430.411 -0.722174 0 -0.722174 -0.0144999 0 0 0 91.6771 
430.495 -0.636803 0 -0.636803 -0.226065 0 0 0 91.6026 
430.552 -0.490259 0 -0.490259 -0.362573 0 0 0 91.5551 
430.587 -0.306981 0 -0.306981 -0.443526 0 0 0 91.5272 
430.604 -0.104334 0 -0.104334 -0.481085 0 0 0 91.5143 
360.392 49.5738 0 49.5738 117.849 0 0 0 122.815 
377.807 47.425 0 47.425 93.6729 0 0 0 117.701 
393.449 41.8076 0 41.8076 71.6337 0 0 0 112.721 
405.931 34.2378 0 34.2378 53.2812 0 0 0 108.25 
415.046 26.3478 0 26.3478 38.9174 0 0 0 104.463 
421.319 19.2245 0 19.2245 28.0741 0 0 0 101.379 
425.472 13.3497 0 13.3497 20.0413 0 0 0 98.933 
428.143 8.79733 0 8.79733 14.1465 0 0 0 97.0293 
429.814 5.43357 0 5.43357 9.84414 0 0 0 95.5692 
430.821 3.04871 0 3.04871 6.71857 0 0 0 94.4629 
431.396 1.42691 0 1.42691 4.46015 0 0 0 93.6337 
431.693 0.377258 0 0.377258 2.8396 0 0 0 93.0187 
431.817 -0.256303 0 -0.256303 1.68695 0 0 0 92.5673 
431.836 -0.595116 0 -0.595116 0.875986 0 0 0 92.2396 
431.799 -0.730244 0 -0.730244 0.313049 0 0 0 92.0049 
431.736 -0.728113 0 -0.728113 -0.0710738 0 0 0 91.8394 
431.667 -0.636028 0 -0.636028 -0.326954 0 0 0 91.7255 
431.606 -0.487042 0 -0.487042 -0.490744 0 0 0 91.6503 
431.562 -0.304046 0 -0.304046 -0.587193 0 0 0 91.6049 
431.539 -0.103195 0 -0.103195 -0.63172 0 0 0 91.5835 
359.255 37.2717 0 37.2717 116.92 0 0 0 122.979 
375.18 35.8845 0 35.8845 95.2133 0 0 0 118.402 
390.094 32.1592 0 32.1592 75.0138 0 0 0 113.857 
402.818 26.912 0 26.912 57.4813 0 0 0 109.624 
412.844 21.1657 0 21.1657 43.0811 0 0 0 105.887 
420.249 15.7369 0 15.7369 31.7095 0 0 0 102.721 
425.437 11.0895 0 11.0895 22.9654 0 0 0 100.121 
428.898 7.38333 0 7.38333 16.3638 0 0 0 98.0382 
431.088 4.58683 0 4.58683 11.447 0 0 0 96.4002 
432.379 2.57478 0 2.57478 7.8265 0 0 0 95.132 
433.06 1.19313 0 1.19313 5.18887 0 0 0 94.1631 
433.34 0.293772 0 0.293772 3.28829 0 0 0 93.4316 
433.371 -0.250156 0 -0.250156 1.93491 0 0 0 92.8856 
433.261 -0.540188 0 -0.540188 0.983824 0 0 0 92.4826 
433.081 -0.653884 0 -0.653884 0.325525 0 0 0 92.1891 
432.881 -0.648443 0 -0.648443 -0.121787 0 0 0 91.9788 
432.694 -0.564858 0 -0.564858 -0.418257 0 0 0 91.8317 