# vtk DataFile Version 2.0
Generated by inSilico's base::io::vtk::LegacyWriter
ASCII
DATASET UNSTRUCTURED_GRID
POINTS 441 float
0 0 0 
0.05 0 0 
0.1 0 0 
0.15 0 0 
0.2 0 0 
0.25 0 0 
0.3 0 0 
0.35 0 0 
0.4 0 0 
0.45 0 0 
0.5 0 0 
0.55 0 0 
0.6 0 0 
0.65 0 0 
0.7 0 0 
0.75 0 0 
0.8 0 0 
0.85 0 0 
0.9 0 0 
0.95 0 0 
1 0 0 
0 0.05 0 
0.05 0.05 0 
0.1 0.05 0 
0.15 0.05 0 
0.2 0.05 0 
0.25 0.05 0 
0.3 0.05 0 
0.35 0.05 0 
0.4 0.05 0 
0.45 0.05 0 
0.5 0.05 0 
0.55 0.05 0 
0.6 0.05 0 
0.65 0.05 0 
0.7 0.05 0 
0.75 0.05 0 
0.8 0.05 0 
0.85 0.05 0 
0.9 0.05 0 
0.95 0.05 0 
1 0.05 0 
0 0.1 0 
0.05 0.1 0 
0.1 0.1 0 
0.15 0.1 0 
0.2 0.1 0 
0.25 0.1 0 
0.3 0.1 0 
0.35 0.1 0 
0.4 0.1 0 
0.45 0.1 0 
0.5 0.1 0 
0.55 0.1 0 
0.6 0.1 0 
0.65 0.1 0 
0.7 0.1 0 
0.75 0.1 0 
0.8 0.1 0 
0.85 0.1 0 
0.9 0.1 0 
0.95 0.1 0 
1 0.1 0 
0 0.15 0 
0.05 0.15 0 
0.1 0.15 0 
0.15 0.15 0 
0.2 0.15 0 
0.25 0.15 0 
0.3 0.15 0 
0.35 0.15 0 
0.4 0.15 0 
0.45 0.15 0 
0.5 0.15 0 
0.55 0.15 0 
0.6 0.15 0 
0.65 0.15 0 
0.7 0.15 0 
0.75 0.15 0 
0.8 0.15 0 
0.85 0.15 0 
0.9 0.15 0 
0.95 0.15 0 
1 0.15 0 
0 0.2 0 
0.05 0.2 0 
0.1 0.2 0 
0.15 0.2 0 
0.2 0.2 0 
0.25 0.2 0 
0.3 0.2 0 
0.35 0.2 0 
0.4 0.2 0 
0.45 0.2 0 
0.5 0.2 0 
0.55 0.2 0 
0.6 0.2 0 
0.65 0.2 0 
0.7 0.2 0 
0.75 0.2 0 
0.8 0.2 0 
0.85 0.2 0 
0.9 0.2 0 
0.95 0.2 0 
1 0.2 0 
0 0.25 0 
0.05 0.25 0 
0.1 0.25 0 
0.15 0.25 0 
0.2 0.25 0 
0.25 0.25 0 
0.3 0.25 0 
0.35 0.25 0 
0.4 0.25 0 
0.45 0.25 0 
0.5 0.25 0 
0.55 0.25 0 
0.6 0.25 0 
0.65 0.25 0 
0.7 0.25 0 
0.75 0.25 0 
0.8 0.25 0 
0.85 0.25 0 
0.9 0.25 0 
0.95 0.25 0 
1 0.25 0 
0 0.3 0 
0.05 0.3 0 
0.1 0.3 0 
0.15 0.3 0 
0.2 0.3 0 
0.25 0.3 0 
0.3 0.3 0 
0.35 0.3 0 
0.4 0.3 0 
0.45 0.3 0 
0.5 0.3 0 
0.55 0.3 0 
0.6 0.3 0 
0.65 0.3 0 
0.7 0.3 0 
0.75 0.3 0 
0.8 0.3 0 
0.85 0.3 0 
0.9 0.3 0 
0.95 0.3 0 
1 0.3 0 
0 0.35 0 
0.05 0.35 0 
0.1 0.35 0 
0.15 0.35 0 
0.2 0.35 0 
0.25 0.35 0 
0.3 0.35 0 
0.35 0.35 0 
0.4 0.35 0 
0.45 0.35 0 
0.5 0.35 0 
0.55 0.35 0 
0.6 0.35 0 
0.65 0.35 0 
0.7 0.35 0 
0.75 0.35 0 
0.8 0.35 0 
0.85 0.35 0 
0.9 0.35 0 
0.95 0.35 0 
1 0.35 0 
0 0.4 0 
0.05 0.4 0 
0.1 0.4 0 
0.15 0.4 0 
0.2 0.4 0 
0.25 0.4 0 
0.3 0.4 0 
0.35 0.4 0 
0.4 0.4 0 
0.45 0.4 0 
0.5 0.4 0 
0.55 0.4 0 
0.6 0.4 0 
0.65 0.4 0 
0.7 0.4 0 
0.75 0.4 0 
0.8 0.4 0 
0.85 0.4 0 
0.9 0.4 0 
0.95 0.4 0 
1 0.4 0 
0 0.45 0 
0.05 0.45 0 
0.1 0.45 0 
0.15 0.45 0 
0.2 0.45 0 
0.25 0.45 0 
0.3 0.45 0 
0.35 0.45 0 
0.4 0.45 0 
0.45 0.45 0 
0.5 0.45 0 
0.55 0.45 0 
0.6 0.45 0 
0.65 0.45 0 
0.7 0.45 0 
0.75 0.45 0 
0.8 0.45 0 
0.85 0.45 0 
0.9 0.45 0 
0.95 0.45 0 
1 0.45 0 
0 0.5 0 
0.05 0.5 0 
0.1 0.5 0 
0.15 0.5 0 
0.2 0.5 0 
0.25 0.5 0 
0.3 0.5 0 
0.35 0.5 0 
0.4 0.5 0 
0.45 0.5 0 
0.5 0.5 0 
0.55 0.5 0 
0.6 0.5 0 
0.65 0.5 0 
0.7 0.5 0 
0.75 0.5 0 
0.8 0.5 0 
0.85 0.5 0 
0.9 0.5 0 
0.95 0.5 0 
1 0.5 0 
0 0.55 0 
0.05 0.55 0 
0.1 0.55 0 
0.15 0.55 0 
0.2 0.55 0 
0.25 0.55 0 
0.3 0.55 0 
0.35 0.55 0 
0.4 0.55 0 
0.45 0.55 0 
0.5 0.55 0 
0.55 0.55 0 
0.6 0.55 0 
0.65 0.55 0 
0.7 0.55 0 
0.75 0.55 0 
0.8 0.55 0 
0.85 0.55 0 
0.9 0.55 0 
0.95 0.55 0 
1 0.55 0 
0 0.6 0 
0.05 0.6 0 
0.1 0.6 0 
0.15 0.6 0 
0.2 0.6 0 
0.25 0.6 0 
0.3 0.6 0 
0.35 0.6 0 
0.4 0.6 0 
0.45 0.6 0 
0.5 0.6 0 
0.55 0.6 0 
0.6 0.6 0 
0.65 0.6 0 
0.7 0.6 0 
0.75 0.6 0 
0.8 0.6 0 
0.85 0.6 0 
0.9 0.6 0 
0.95 0.6 0 
1 0.6 0 
0 0.65 0 
0.05 0.65 0 
0.1 0.65 0 
0.15 0.65 0 
0.2 0.65 0 
0.25 0.65 0 
0.3 0.65 0 
0.35 0.65 0 
0.4 0.65 0 
0.45 0.65 0 
0.5 0.65 0 
0.55 0.65 0 
0.6 0.65 0 
0.65 0.65 0 
0.7 0.65 0 
0.75 0.65 0 
0.8 0.65 0 
0.85 0.65 0 
0.9 0.65 0 
0.95 0.65 0 
1 0.65 0 
0 0.7 0 
0.05 0.7 0 
0.1 0.7 0 
0.15 0.7 0 
0.2 0.7 0 
0.25 0.7 0 
0.3 0.7 0 
0.35 0.7 0 
0.4 0.7 0 
0.45 0.7 0 
0.5 0.7 0 
0.55 0.7 0 
0.6 0.7 0 
0.65 0.7 0 
0.7 0.7 0 
0.75 0.7 0 
0.8 0.7 0 
0.85 0.7 0 
0.9 0.7 0 
0.95 0.7 0 
1 0.7 0 
0 0.75 0 
0.05 0.75 0 
0.1 0.75 0 
0.15 0.75 0 
0.2 0.75 0 
0.25 0.75 0 
0.3 0.75 0 
0.35 0.75 0 
0.4 0.75 0 
0.45 0.75 0 
0.5 0.75 0 
0.55 0.75 0 
0.6 0.75 0 
0.65 0.75 0 
0.7 0.75 0 
0.75 0.75 0 
0.8 0.75 0 
0.85 0.75 0 
0.9 0.75 0 
0.95 0.75 0 
1 0.75 0 
0 0.8 0 
0.05 0.8 0 
0.1 0.8 0 
0.15 0.8 0 
0.2 0.8 0 
0.25 0.8 0 
0.3 0.8 0 
0.35 0.8 0 
0.4 0.8 0 
0.45 0.8 0 
0.5 0.8 0 
0.55 0.8 0 
0.6 0.8 0 
0.65 0.8 0 
0.7 0.8 0 
0.75 0.8 0 
0.8 0.8 0 
0.85 0.8 0 
0.9 0.8 0 
0.95 0.8 0 
1 0.8 0 
0 0.85 0 
0.05 0.85 0 
0.1 0.85 0 
0.15 0.85 0 
0.2 0.85 0 
0.25 0.85 0 
0.3 0.85 0 
0.35 0.85 0 
0.4 0.85 0 
0.45 0.85 0 
0.5 0.85 0 
0.55 0.85 0 
0.6 0.85 0 
0.65 0.85 0 
0.7 0.85 0 
0.75 0.85 0 
0.8 0.85 0 
0.85 0.85 0 
0.9 0.85 0 
0.95 0.85 0 
1 0.85 0 
0 0.9 0 
0.05 0.9 0 
0.1 0.9 0 
0.15 0.9 0 
0.2 0.9 0 
0.25 0.9 0 
0.3 0.9 0 
0.35 0.9 0 
0.4 0.9 0 
0.45 0.9 0 
0.5 0.9 0 
0.55 0.9 0 
0.6 0.9 0 
0.65 0.9 0 
0.7 0.9 0 
0.75 0.9 0 
0.8 0.9 0 
0.85 0.9 0 
0.9 0.9 0 
0.95 0.9 0 
1 0.9 0 
0 0.95 0 
0.05 0.95 0 
0.1 0.95 0 
0.15 0.95 0 
0.2 0.95 0 
0.25 0.95 0 
0.3 0.95 0 
0.35 0.95 0 
0.4 0.95 0 
0.45 0.95 0 
0.5 0.95 0 
0.55 0.95 0 
0.6 0.95 0 
0.65 0.95 0 
0.7 0.95 0 
0.75 0.95 0 
0.8 0.95 0 
0.85 0.95 0 
0.9 0.95 0 
0.95 0.95 0 
1 0.95 0 
0 1 0 
0.05 1 0 
0.1 1 0 
0.15 1 0 
0.2 1 0 
0.25 1 0 
0.3 1 0 
0.35 1 0 
0.4 1 0 
0.45 1 0 
0.5 1 0 
0.55 1 0 
0.6 1 0 
0.65 1 0 
0.7 1 0 
0.75 1 0 
0.8 1 0 
0.85 1 0 
0.9 1 0 
0.95 1 0 
1 1 0 
CELLS 400 2000
4 0 1 22 21 
4 1 2 23 22 
4 2 3 24 23 
4 3 4 25 24 
4 4 5 26 25 
4 5 6 27 26 
4 6 7 28 27 
4 7 8 29 28 
4 8 9 30 29 
4 9 10 31 30 
4 10 11 32 31 
4 11 12 33 32 
4 12 13 34 33 
4 13 14 35 34 
4 14 15 36 35 
4 15 16 37 36 
4 16 17 38 37 
4 17 18 39 38 
4 18 19 40 39 
4 19 20 41 40 
4 21 22 43 42 
4 22 23 44 43 
4 23 24 45 44 
4 24 25 46 45 
4 25 26 47 46 
4 26 27 48 47 
4 27 28 49 48 
4 28 29 50 49 
4 29 30 51 50 
4 30 31 52 51 
4 31 32 53 52 
4 32 33 54 53 
4 33 34 55 54 
4 34 35 56 55 
4 35 36 57 56 
4 36 37 58 57 
4 37 38 59 58 
4 38 39 60 59 
4 39 40 61 60 
4 40 41 62 61 
4 42 43 64 63 
4 43 44 65 64 
4 44 45 66 65 
4 45 46 67 66 
4 46 47 68 67 
4 47 48 69 68 
4 48 49 70 69 
4 49 50 71 70 
4 50 51 72 71 
4 51 52 73 72 
4 52 53 74 73 
4 53 54 75 74 
4 54 55 76 75 
4 55 56 77 76 
4 56 57 78 77 
4 57 58 79 78 
4 58 59 80 79 
4 59 60 81 80 
4 60 61 82 81 
4 61 62 83 82 
4 63 64 85 84 
4 64 65 86 85 
4 65 66 87 86 
4 66 67 88 87 
4 67 68 89 88 
4 68 69 90 89 
4 69 70 91 90 
4 70 71 92 91 
4 71 72 93 92 
4 72 73 94 93 
4 73 74 95 94 
4 74 75 96 95 
4 75 76 97 96 
4 76 77 98 97 
4 77 78 99 98 
4 78 79 100 99 
4 79 80 101 100 
4 80 81 102 101 
4 81 82 103 102 
4 82 83 104 103 
4 84 85 106 105 
4 85 86 107 106 
4 86 87 108 107 
4 87 88 109 108 
4 88 89 110 109 
4 89 90 111 110 
4 90 91 112 111 
4 91 92 113 112 
4 92 93 114 113 
4 93 94 115 114 
4 94 95 116 115 
4 95 96 117 116 
4 96 97 118 117 
4 97 98 119 118 
4 98 99 120 119 
4 99 100 121 120 
4 100 101 122 121 
4 101 102 123 122 
4 102 103 124 123 
4 103 104 125 124 
4 105 106 127 126 
4 106 107 128 127 
4 107 108 129 128 
4 108 109 130 129 
4 109 110 131 130 
4 110 111 132 131 
4 111 112 133 132 
4 112 113 134 133 
4 113 114 135 134 
4 114 115 136 135 
4 115 116 137 136 
4 116 117 138 137 
4 117 118 139 138 
4 118 119 140 139 
4 119 120 141 140 
4 120 121 142 141 
4 121 122 143 142 
4 122 123 144 143 
4 123 124 145 144 
4 124 125 146 145 
4 126 127 148 147 
4 127 128 149 148 
4 128 129 150 149 
4 129 130 151 150 
4 130 131 152 151 
4 131 132 153 152 
4 132 133 154 153 
4 133 134 155 154 
4 134 135 156 155 
4 135 136 157 156 
4 136 137 158 157 
4 137 138 159 158 
4 138 139 160 159 
4 139 140 161 160 
4 140 141 162 161 
4 141 142 163 162 
4 142 143 164 163 
4 143 144 165 164 
4 144 145 166 165 
4 145 146 167 166 
4 147 148 169 168 
4 148 149 170 169 
4 149 150 171 170 
4 150 151 172 171 
4 151 152 173 172 
4 152 153 174 173 
4 153 154 175 174 
4 154 155 176 175 
4 155 156 177 176 
4 156 157 178 177 
4 157 158 179 178 
4 158 159 180 179 
4 159 160 181 180 
4 160 161 182 181 
4 161 162 183 182 
4 162 163 184 183 
4 163 164 185 184 
4 164 165 186 185 
4 165 166 187 186 
4 166 167 188 187 
4 168 169 190 189 
4 169 170 191 190 
4 170 171 192 191 
4 171 172 193 192 
4 172 173 194 193 
4 173 174 195 194 
4 174 175 196 195 
4 175 176 197 196 
4 176 177 198 197 
4 177 178 199 198 
4 178 179 200 199 
4 179 180 201 200 
4 180 181 202 201 
4 181 182 203 202 
4 182 183 204 203 
4 183 184 205 204 
4 184 185 206 205 
4 185 186 207 206 
4 186 187 208 207 
4 187 188 209 208 
4 189 190 211 210 
4 190 191 212 211 
4 191 192 213 212 
4 192 193 214 213 
4 193 194 215 214 
4 194 195 216 215 
4 195 196 217 216 
4 196 197 218 217 
4 197 198 219 218 
4 198 199 220 219 
4 199 200 221 220 
4 200 201 222 221 
4 201 202 223 222 
4 202 203 224 223 
4 203 204 225 224 
4 204 205 226 225 
4 205 206 227 226 
4 206 207 228 227 
4 207 208 229 228 
4 208 209 230 229 
4 210 211 232 231 
4 211 212 233 232 
4 212 213 234 233 
4 213 214 235 234 
4 214 215 236 235 
4 215 216 237 236 
4 216 217 238 237 
4 217 218 239 238 
4 218 219 240 239 
4 219 220 241 240 
4 220 221 242 241 
4 221 222 243 242 
4 222 223 244 243 
4 223 224 245 244 
4 224 225 246 245 
4 225 226 247 246 
4 226 227 248 247 
4 227 228 249 248 
4 228 229 250 249 
4 229 230 251 250 
4 231 232 253 252 
4 232 233 254 253 
4 233 234 255 254 
4 234 235 256 255 
4 235 236 257 256 
4 236 237 258 257 
4 237 238 259 258 
4 238 239 260 259 
4 239 240 261 260 
4 240 241 262 261 
4 241 242 263 262 
4 242 243 264 263 
4 243 244 265 264 
4 244 245 266 265 
4 245 246 267 266 
4 246 247 268 267 
4 247 248 269 268 
4 248 249 270 269 
4 249 250 271 270 
4 250 251 272 271 
4 252 253 274 273 
4 253 254 275 274 
4 254 255 276 275 
4 255 256 277 276 
4 256 257 278 277 
4 257 258 279 278 
4 258 259 280 279 
4 259 260 281 280 
4 260 261 282 281 
4 261 262 283 282 
4 262 263 284 283 
4 263 264 285 284 
4 264 265 286 285 
4 265 266 287 286 
4 266 267 288 287 
4 267 268 289 288 
4 268 269 290 289 
4 269 270 291 290 
4 270 271 292 291 
4 271 272 293 292 
4 273 274 295 294 
4 274 275 296 295 
4 275 276 297 296 
4 276 277 298 297 
4 277 278 299 298 
4 278 279 300 299 
4 279 280 301 300 
4 280 281 302 301 
4 281 282 303 302 
4 282 283 304 303 
4 283 284 305 304 
4 284 285 306 305 
4 285 286 307 306 
4 286 287 308 307 
4 287 288 309 308 
4 288 289 310 309 
4 289 290 311 310 
4 290 291 312 311 
4 291 292 313 312 
4 292 293 314 313 
4 294 295 316 315 
4 295 296 317 316 
4 296 297 318 317 
4 297 298 319 318 
4 298 299 320 319 
4 299 300 321 320 
4 300 301 322 321 
4 301 302 323 322 
4 302 303 324 323 
4 303 304 325 324 
4 304 305 326 325 
4 305 306 327 326 
4 306 307 328 327 
4 307 308 329 328 
4 308 309 330 329 
4 309 310 331 330 
4 310 311 332 331 
4 311 312 333 332 
4 312 313 334 333 
4 313 314 335 334 
4 315 316 337 336 
4 316 317 338 337 
4 317 318 339 338 
4 318 319 340 339 
4 319 320 341 340 
4 320 321 342 341 
4 321 322 343 342 
4 322 323 344 343 
4 323 324 345 344 
4 324 325 346 345 
4 325 326 347 346 
4 326 327 348 347 
4 327 328 349 348 
4 328 329 350 349 
4 329 330 351 350 
4 330 331 352 351 
4 331 332 353 352 
4 332 333 354 353 
4 333 334 355 354 
4 334 335 356 355 
4 336 337 358 357 
4 337 338 359 358 
4 338 339 360 359 
4 339 340 361 360 
4 340 341 362 361 
4 341 342 363 362 
4 342 343 364 363 
4 343 344 365 364 
4 344 345 366 365 
4 345 346 367 366 
4 346 347 368 367 
4 347 348 369 368 
4 348 349 370 369 
4 349 350 371 370 
4 350 351 372 371 
4 351 352 373 372 
4 352 353 374 373 
4 353 354 375 374 
4 354 355 376 375 
4 355 356 377 376 
4 357 358 379 378 
4 358 359 380 379 
4 359 360 381 380 
4 360 361 382 381 
4 361 362 383 382 
4 362 363 384 383 
4 363 364 385 384 
4 364 365 386 385 
4 365 366 387 386 
4 366 367 388 387 
4 367 368 389 388 
4 368 369 390 389 
4 369 370 391 390 
4 370 371 392 391 
4 371 372 393 392 
4 372 373 394 393 
4 373 374 395 394 
4 374 375 396 395 
4 375 376 397 396 
4 376 377 398 397 
4 378 379 400 399 
4 379 380 401 400 
4 380 381 402 401 
4 381 382 403 402 
4 382 383 404 403 
4 383 384 405 404 
4 384 385 406 405 
4 385 386 407 406 
4 386 387 408 407 
4 387 388 409 408 
4 388 389 410 409 
4 389 390 411 410 
4 390 391 412 411 
4 391 392 413 412 
4 392 393 414 413 
4 393 394 415 414 
4 394 395 416 415 
4 395 396 417 416 
4 396 397 418 417 
4 397 398 419 418 
4 399 400 421 420 
4 400 401 422 421 
4 401 402 423 422 
4 402 403 424 423 
4 403 404 425 424 
4 404 405 426 425 
4 405 406 427 426 
4 406 407 428 427 
4 407 408 429 428 
4 408 409 430 429 
4 409 410 431 430 
4 410 411 432 431 
4 411 412 433 432 
4 412 413 434 433 
4 413 414 435 434 
4 414 415 436 435 
4 415 416 437 436 
4 416 417 438 437 
4 417 418 439 438 
4 418 419 440 439 
CELL_TYPES 400
9
9
9
9
9
9
9
9
9
9
9
9
9
9
9
9
9
9
9
9
9
9
9
9
9
9
9
9
9
9
9
9
9
9
9
9
9
9
9
9
9
9
9
9
9
9
9
9
9
9
9
9
9
9
9
9
9
9
9
9
9
9
9
9
9
9
9
9
9
9
9
9
9
9
9
9
9
9
9
9
9
9
9
9
9
9
9
9
9
9
9
9
9
9
9
9
9
9
9
9
9
9
9
9
9
9
9
9
9
9
9
9
9
9
9
9
9
9
9
9
9
9
9
9
9
9
9
9
9
9
9
9
9
9
9
9
9
9
9
9
9
9
9
9
9
9
9
9
9
9
9
9
9
9
9
9
9
9
9
9
9
9
9
9
9
9
9
9
9
9
9
9
9
9
9
9
9
9
9
9
9
9
9
9
9
9
9
9
9
9
9
9
9
9
9
9
9
9
9
9
9
9
9
9
9
9
9
9
9
9
9
9
9
9
9
9
9
9
9
9
9
9
9
9
9
9
9
9
9
9
9
9
9
9
9
9
9
9
9
9
9
9
9
9
9
9
9
9
9
9
9
9
9
9
9
9
9
9
9
9
9
9
9
9
9
9
9
9
9
9
9
9
9
9
9
9
9
9
9
9
9
9
9
9
9
9
9
9
9
9
9
9
9
9
9
9
9
9
9
9
9
9
9
9
9
9
9
9
9
9
9
9
9
9
9
9
9
9
9
9
9
9
9
9
9
9
9
9
9
9
9
9
9
9
9
9
9
9
9
9
9
9
9
9
9
9
9
9
9
9
9
9
9
9
9
9
9
9
9
9
9
9
9
9
9
9
9
9
9
9
9
9
9
9
9
9
9
9
9
9
9
9
9
9
9
9
9
9
9
9
9
9
9
9
9
9
9
9
9
9
POINT_DATA 441
VECTORS disp float 
0 0 0 
0.0181302 0.0175851 0 
0.0322029 0.0275761 0 
0.0453163 0.0344707 0 
0.0581449 0.0395168 0 
0.070932 0.0432887 0 
0.0837861 0.0461279 0 
0.0967573 0.0482655 0 
0.109866 0.0498691 0 
0.123117 0.0510642 0 
0.136504 0.0519476 0 
0.150016 0.0525939 0 
0.163641 0.0530613 0 
0.177363 0.0533947 0 
0.191167 0.053629 0 
0.205041 0.0537906 0 
0.21897 0.0538996 0 
0.232941 0.0539708 0 
0.246944 0.0540148 0 
0.260967 0.0540384 0 
0.275 0.0540459 0 
0 0 0 
0.0132633 0.0125524 0 
0.0276902 0.0222898 0 
0.0416344 0.0293106 0 
0.0552214 0.0344487 0 
0.0686347 0.038258 0 
0.0819932 0.0410975 0 
0.0953668 0.0432138 0 
0.108795 0.0447846 0 
0.122297 0.0459425 0 
0.135881 0.0467882 0 
0.149548 0.0473988 0 
0.163291 0.0478339 0 
0.177105 0.0481391 0 
0.190979 0.0483494 0 
0.204906 0.0484913 0 
0.218875 0.0485846 0 
0.232878 0.0486439 0 
0.246905 0.0486795 0 
0.260949 0.0486983 0 
0.275 0.0487041 0 
0 0 0 
0.0119876 0.00957626 0 
0.0253136 0.0179874 0 
0.0390781 0.0245679 0 
0.0528616 0.0295488 0 
0.0665864 0.033285 0 
0.08027 0.036075 0 
0.0939446 0.0381477 0 
0.107637 0.039677 0 
0.121365 0.0407953 0 
0.135138 0.041604 0 
0.148961 0.0421812 0 
0.162832 0.0425868 0 
0.17675 0.0428666 0 
0.190709 0.0430557 0 
0.204703 0.0431802 0 
0.218727 0.0432598 0 
0.232775 0.0433087 0 
0.24684 0.0433372 0 
0.260917 0.0433517 0 
0.275 0.0433561 0 
0 0 0 
0.011504 0.00757142 0 
0.0241354 0.0145482 0 
0.0374731 0.020364 0 
0.0511348 0.0249516 0 
0.064923 0.0284714 0 
0.0787601 0.0311286 0 
0.0926228 0.0331101 0 
0.106508 0.034571 0 
0.120418 0.0356351 0 
0.134355 0.0363997 0 
0.148322 0.0369406 0 
0.162318 0.0373163 0 
0.176341 0.0375719 0 
0.190388 0.0377414 0 
0.204458 0.0378505 0 
0.218545 0.0379182 0 
0.232646 0.0379585 0 
0.246758 0.0379809 0 
0.260877 0.037992 0 
0.275 0.0379953 0 
0 0 0 
0.0112777 0.00604533 0 
0.0235083 0.0117319 0 
0.0364802 0.0166645 0 
0.0499268 0.0206982 0 
0.0636462 0.0238722 0 
0.0775168 0.0263061 0 
0.0914733 0.0281368 0 
0.105482 0.0294912 0 
0.119526 0.0304775 0 
0.133596 0.0311839 0 
0.147687 0.0316808 0 
0.161794 0.0320232 0 
0.175916 0.0322534 0 
0.19005 0.0324038 0 
0.204194 0.0324987 0 
0.218346 0.0325561 0 
0.232505 0.032589 0 
0.246667 0.0326066 0 
0.260833 0.0326149 0 
0.275 0.0326173 0 
0 0 0 
0.011159 0.00478491 0 
0.0231503 0.00933127 0 
0.0358555 0.013372 0 
0.049095 0.0167671 0 
0.0626985 0.0195 0 
0.076537 0.0216305 0 
0.0905232 0.0232501 0 
0.104601 0.0244557 0 
0.118736 0.0253358 0 
0.132906 0.025966 0 
0.147096 0.0264079 0 
0.161299 0.0267107 0 
0.175509 0.0269127 0 
0.189721 0.0270431 0 
0.203936 0.0271241 0 
0.21815 0.027172 0 
0.232363 0.0271986 0 
0.246576 0.0272123 0 
0.260788 0.0272184 0 
0.275 0.0272201 0 
0 0 0 
0.0110927 0.00368605 0 
0.0229358 0.0072075 0 
0.0354555 0.010385 0 
0.0485268 0.0131063 0 
0.062013 0.015337 0 
0.0757932 0.0171018 0 
0.0897728 0.0184579 0 
0.103883 0.0194744 0 
0.118074 0.0202194 0 
0.132315 0.0207534 0 
0.146582 0.0211276 0 
0.160861 0.0213832 0 
0.175144 0.0215527 0 
0.189424 0.0216614 0 
0.203699 0.021728 0 
0.217969 0.0217667 0 
0.232232 0.0217877 0 
0.246491 0.0217981 0 
0.260746 0.0218026 0 
0.275 0.0218038 0 
0 0 0 
0.0110546 0.0026904 0 
0.0228045 0.00526883 0 
0.0351988 0.00761756 0 
0.0481454 0.0096554 0 
0.0615331 0.0113485 0 
0.0752531 0.0127037 0 
0.0892107 0.0137548 0 
0.10333 0.0145479 0 
0.117555 0.0151315 0 
0.131843 0.0155508 0 
0.146165 0.0158446 0 
0.160502 0.016045 0 
0.174841 0.0161775 0 
0.189175 0.016262 0 
0.203501 0.0163133 0 
0.217816 0.0163428 0 
0.232121 0.0163585 0 
0.246419 0.0163661 0 
0.260711 0.0163692 0 
0.275 0.01637 0 
0 0 0 
0.011033 0.00176087 0 
0.0227258 0.00345162 0 
0.0350398 0.00500069 0 
0.0479015 0.00635597 0 
0.0612172 0.00749224 0 
0.074888 0.0084095 0 
0.0888221 0.00912586 0 
0.102941 0.00966919 0 
0.117183 0.0100704 0 
0.131501 0.0103592 0 
0.14586 0.0105618 0 
0.160236 0.0106999 0 
0.174616 0.010791 0 
0.188989 0.0108489 0 
0.203351 0.010884 0 
0.2177 0.0109039 0 
0.232037 0.0109144 0 
0.246364 0.0109194 0 
0.260684 0.0109214 0 
0.275 0.0109219 0 
0 0 0 
0.0110219 0.000871078 0 
0.0226838 0.0017083 0 
0.0349528 0.00247777 0 
0.0477656 0.00315413 0 
0.0610379 0.00372416 0 
0.0746773 0.00418664 0 
0.0885945 0.00454938 0 
0.10271 0.00482541 0 
0.11696 0.00502973 0 
0.131294 0.00517701 0 
0.145673 0.00528037 0 
0.160074 0.00535082 0 
0.174477 0.0053973 0 
0.188874 0.00542677 0 
0.203258 0.00544456 0 
0.217628 0.00545464 0 
0.231985 0.0054599 0 
0.24633 0.00546235 0 
0.260667 0.00546333 0 
0.275 0.00546357 0 
0 0 0 
0.0110185 3.02789e-17 0 
0.0226705 6.08108e-17 0 
0.0349252 9.07511e-17 0 
0.0477219 1.21641e-16 0 
0.0609798 1.58077e-16 0 
0.0746085 1.94013e-16 0 
0.0885196 2.29885e-16 0 
0.102634 2.63597e-16 0 
0.116886 3.05948e-16 0 
0.131224 3.22767e-16 0 
0.145611 3.68439e-16 0 
0.160019 4.03455e-16 0 
0.17443 4.33356e-16 0 
0.188835 4.74576e-16 0 
0.203227 4.93624e-16 0 
0.217604 5.29294e-16 0 
0.231967 5.27051e-16 0 
0.246318 5.37464e-16 0 
0.260661 5.30337e-16 0 
0.275 5.60695e-16 0 
0 0 0 
0.0110219 -0.000871078 0 
0.0226838 -0.0017083 0 
0.0349528 -0.00247777 0 
0.0477656 -0.00315413 0 
0.0610379 -0.00372416 0 
0.0746773 -0.00418664 0 
0.0885945 -0.00454938 0 
0.10271 -0.00482541 0 
0.11696 -0.00502973 0 
0.131294 -0.00517701 0 
0.145673 -0.00528037 0 
0.160074 -0.00535082 0 
0.174477 -0.0053973 0 
0.188874 -0.00542677 0 
0.203258 -0.00544456 0 
0.217628 -0.00545464 0 
0.231985 -0.0054599 0 
0.24633 -0.00546235 0 
0.260667 -0.00546333 0 
0.275 -0.00546357 0 
0 0 0 
0.011033 -0.00176087 0 
0.0227258 -0.00345162 0 
0.0350398 -0.00500069 0 
0.0479015 -0.00635597 0 
0.0612172 -0.00749224 0 
0.074888 -0.0084095 0 
0.0888221 -0.00912586 0 
0.102941 -0.00966919 0 
0.117183 -0.0100704 0 
0.131501 -0.0103592 0 
0.14586 -0.0105618 0 
0.160236 -0.0106999 0 
0.174616 -0.010791 0 
0.188989 -0.0108489 0 
0.203351 -0.010884 0 
0.2177 -0.0109039 0 
0.232037 -0.0109144 0 
0.246364 -0.0109194 0 
0.260684 -0.0109214 0 
0.275 -0.0109219 0 
0 0 0 
0.0110546 -0.0026904 0 
0.0228045 -0.00526883 0 
0.0351988 -0.00761756 0 
0.0481454 -0.0096554 0 
0.0615331 -0.0113485 0 
0.0752531 -0.0127037 0 
0.0892107 -0.0137548 0 
0.10333 -0.0145479 0 
0.117555 -0.0151315 0 
0.131843 -0.0155508 0 
0.146165 -0.0158446 0 
0.160502 -0.016045 0 
0.174841 -0.0161775 0 
0.189175 -0.016262 0 
0.203501 -0.0163133 0 
0.217816 -0.0163428 0 
0.232121 -0.0163585 0 
0.246419 -0.0163661 0 
0.260711 -0.0163692 0 
0.275 -0.01637 0 
0 0 0 
0.0110927 -0.00368605 0 
0.0229358 -0.0072075 0 
0.0354555 -0.010385 0 
0.0485268 -0.0131063 0 
0.062013 -0.015337 0 
0.0757932 -0.0171018 0 
0.0897728 -0.0184579 0 
0.103883 -0.0194744 0 
0.118074 -0.0202194 0 
0.132315 -0.0207534 0 
0.146582 -0.0211276 0 
0.160861 -0.0213832 0 
0.175144 -0.0215527 0 
0.189424 -0.0216614 0 
0.203699 -0.021728 0 
0.217969 -0.0217667 0 
0.232232 -0.0217877 0 
0.246491 -0.0217981 0 
0.260746 -0.0218026 0 
0.275 -0.0218038 0 
0 0 0 
0.011159 -0.00478491 0 
0.0231503 -0.00933127 0 
0.0358555 -0.013372 0 
0.049095 -0.0167671 0 
0.0626985 -0.0195 0 
0.076537 -0.0216305 0 
0.0905232 -0.0232501 0 
0.104601 -0.0244557 0 
0.118736 -0.0253358 0 
0.132906 -0.025966 0 
0.147096 -0.0264079 0 
0.161299 -0.0267107 0 
0.175509 -0.0269127 0 
0.189721 -0.0270431 0 
0.203936 -0.0271241 0 
0.21815 -0.027172 0 
0.232363 -0.0271986 0 
0.246576 -0.0272123 0 
0.260788 -0.0272184 0 
0.275 -0.0272201 0 
0 0 0 
0.0112777 -0.00604533 0 
0.0235083 -0.0117319 0 
0.0364802 -0.0166645 0 
0.0499268 -0.0206982 0 
0.0636462 -0.0238722 0 
0.0775168 -0.0263061 0 
0.0914733 -0.0281368 0 
0.105482 -0.0294912 0 
0.119526 -0.0304775 0 
0.133596 -0.0311839 0 
0.147687 -0.0316808 0 
0.161794 -0.0320232 0 
0.175916 -0.0322534 0 
0.19005 -0.0324038 0 
0.204194 -0.0324987 0 
0.218346 -0.0325561 0 
0.232505 -0.032589 0 
0.246667 -0.0326066 0 
0.260833 -0.0326149 0 
0.275 -0.0326173 0 
0 0 0 
0.011504 -0.00757142 0 
0.0241354 -0.0145482 0 
0.0374731 -0.020364 0 
0.0511348 -0.0249516 0 
0.064923 -0.0284714 0 
0.0787601 -0.0311286 0 
0.0926228 -0.0331101 0 
0.106508 -0.034571 0 
0.120418 -0.0356351 0 
0.134355 -0.0363997 0 
0.148322 -0.0369406 0 
0.162318 -0.0373163 0 
0.176341 -0.0375719 0 
0.190388 -0.0377414 0 
0.204458 -0.0378505 0 
0.218545 -0.0379182 0 
0.232646 -0.0379585 0 
0.246758 -0.0379809 0 
0.260877 -0.037992 0 
0.275 -0.0379953 0 
0 0 0 
0.0119876 -0.00957626 0 
0.0253136 -0.0179874 0 
0.0390781 -0.0245679 0 
0.0528616 -0.0295488 0 
0.0665864 -0.033285 0 
0.08027 -0.036075 0 
0.0939446 -0.0381477 0 
0.107637 -0.039677 0 
0.121365 -0.0407953 0 
0.135138 -0.041604 0 
0.148961 -0.0421812 0 
0.162832 -0.0425868 0 
0.17675 -0.0428666 0 
0.190709 -0.0430557 0 
0.204703 -0.0431802 0 
0.218727 -0.0432598 0 
0.232775 -0.0433087 0 
0.24684 -0.0433372 0 
0.260917 -0.0433517 0 
0.275 -0.0433561 0 
0 0 0 
0.0132633 -0.0125524 0 
0.0276902 -0.0222898 0 
0.0416344 -0.0293106 0 
0.0552214 -0.0344487 0 
0.0686347 -0.038258 0 
0.0819932 -0.0410975 0 
0.0953668 -0.0432138 0 
0.108795 -0.0447846 0 
0.122297 -0.0459425 0 
0.135881 -0.0467882 0 
0.149548 -0.0473988 0 
0.163291 -0.0478339 0 
0.177105 -0.0481391 0 
0.190979 -0.0483494 0 
0.204906 -0.0484913 0 
0.218875 -0.0485846 0 
0.232878 -0.0486439 0 
0.246905 -0.0486795 0 
0.260949 -0.0486983 0 
0.275 -0.0487041 0 
0 0 0 
0.0181302 -0.0175851 0 
0.0322029 -0.0275761 0 
0.0453163 -0.0344707 0 
0.0581449 -0.0395168 0 
0.070932 -0.0432887 0 
0.0837861 -0.0461279 0 
0.0967573 -0.0482655 0 
0.109866 -0.0498691 0 
0.123117 -0.0510642 0 
0.136504 -0.0519476 0 
0.150016 -0.0525939 0 
0.163641 -0.0530613 0 
0.177363 -0.0533947 0 
0.191167 -0.053629 0 
0.205041 -0.0537906 0 
0.21897 -0.0538996 0 
0.232941 -0.0539708 0 
0.246944 -0.0540148 0 
0.260967 -0.0540384 0 
0.275 -0.0540459 0 
CELL_DATA 400
TENSORS sigma float 
325.617 109.516 0 109.516 53.0197 0 0 0 87.4805 
294.602 55.1213 0 55.1213 16.9831 0 0 0 74.3463 
277.557 33.9978 0 33.9978 7.92858 0 0 0 69.0449 
269.676 22.9557 0 22.9557 4.39941 0 0 0 66.6599 
266.608 16.1467 0 16.1467 2.66767 0 0 0 65.6096 
266.108 11.5552 0 11.5552 1.70193 0 0 0 65.2402 
266.988 8.30418 0 8.30418 1.11835 0 0 0 65.234 
268.578 5.94253 0 5.94253 0.745422 0 0 0 65.4199 
270.482 4.20744 0 4.20744 0.497036 0 0 0 65.6998 
272.46 2.93054 0 2.93054 0.326395 0 0 0 66.0157 
274.369 1.99591 0 1.99591 0.206489 0 0 0 66.3331 
276.127 1.31955 0 1.31955 0.120938 0 0 0 66.632 
277.688 0.838543 0 0.838543 0.0593668 0 0 0 66.9015 
279.035 0.504796 0 0.504796 0.0149395 0 0 0 67.1362 
280.164 0.281178 0 0.281178 -0.0170072 0 0 0 67.3344 
281.082 0.138858 0 0.138858 -0.03974 0 0 0 67.4962 
281.797 0.0553584 0 0.0553584 -0.0555811 0 0 0 67.6228 
282.322 0.013007 0 0.013007 -0.0661757 0 0 0 67.7159 
282.665 -0.00234221 0 -0.00234221 -0.0726526 0 0 0 67.777 
282.835 -0.00242564 0 -0.00242564 -0.0757201 0 0 0 67.8073 
277.037 83.9632 0 83.9632 84.6099 0 0 0 92.2786 
287.513 64.3311 0 64.3311 38.7749 0 0 0 80.2866 
284.013 42.3514 0 42.3514 19.7886 0 0 0 74.2523 
279.306 27.8977 0 27.8977 11.3399 0 0 0 70.9131 
276.134 18.591 0 18.591 7.05528 0 0 0 69.0079 
274.553 12.4192 0 12.4192 4.62759 0 0 0 67.9298 
274.14 8.2196 0 8.2196 3.13228 0 0 0 67.3494 
274.49 5.3206 0 5.3206 2.15296 0 0 0 67.0737 
275.293 3.31235 0 3.31235 1.48261 0 0 0 66.984 
276.331 1.93012 0 1.93012 1.00961 0 0 0 67.0051 
277.454 0.994552 0 0.994552 0.669375 0 0 0 67.0885 
278.564 0.379721 0 0.379721 0.422104 0 0 0 67.2028 
279.6 -0.00484013 0 -0.00484013 0.241822 0 0 0 67.3276 
280.526 -0.224986 0 -0.224986 0.110732 0 0 0 67.4501 
281.323 -0.328899 0 -0.328899 0.0161698 0 0 0 67.5621 
281.984 -0.351811 0 -0.351811 -0.0510892 0 0 0 67.6591 
282.507 -0.319409 0 -0.319409 -0.0978201 0 0 0 67.7382 
282.895 -0.250395 0 -0.250395 -0.128942 0 0 0 67.7982 
283.151 -0.158503 0 -0.158503 -0.147887 0 0 0 67.8384 
283.278 -0.0541502 0 -0.0541502 -0.156831 0 0 0 67.8585 
261.193 65.9646 0 65.9646 87.611 0 0 0 91.7708 
275.024 57.5567 0 57.5567 54.5639 0 0 0 84.0285 
280.768 43.1286 0 43.1286 32.496 0 0 0 78.2544 
281.486 30.157 0 30.157 19.9453 0 0 0 74.4374 
280.671 20.423 0 20.423 12.761 0 0 0 71.9509 
279.799 13.4944 0 13.4944 8.4431 0 0 0 70.3324 
279.3 8.64679 0 8.64679 5.70629 0 0 0 69.2841 
279.208 5.28802 0 5.28802 3.89128 0 0 0 68.6152 
279.436 2.989 0 2.989 2.64552 0 0 0 68.2007 
279.876 1.44528 0 1.44528 1.77006 0 0 0 67.9564 
280.433 0.439908 0 0.439908 1.14602 0 0 0 67.8252 
281.035 -0.183071 0 -0.183071 0.698355 0 0 0 67.7675 
281.629 -0.536418 0 -0.536418 0.377203 0 0 0 67.7558 
282.182 -0.70177 0 -0.70177 0.148017 0 0 0 67.771 
282.671 -0.737999 0 -0.737999 -0.0139058 0 0 0 67.8001 
283.085 -0.687216 0 -0.687216 -0.12655 0 0 0 67.834 
283.419 -0.579207 0 -0.579207 -0.203068 0 0 0 67.8666 
283.668 -0.434803 0 -0.434803 -0.252948 0 0 0 67.8938 
283.835 -0.268524 0 -0.268524 -0.282769 0 0 0 67.9132 
283.917 -0.0907044 0 -0.0907044 -0.296677 0 0 0 67.9233 
254.359 52.6059 0 52.6059 87.2767 0 0 0 91.2768 
267.068 48.3271 0 48.3271 62.2687 0 0 0 85.7737 
275.669 39.272 0 39.272 41.9779 0 0 0 80.9003 
280.055 29.3053 0 29.3053 27.925 0 0 0 77.1361 
281.846 20.667 0 20.667 18.7093 0 0 0 74.3799 
282.43 13.9336 0 13.9336 12.6743 0 0 0 72.4035 
282.577 8.95888 0 8.95888 8.64711 0 0 0 71 
282.633 5.40457 0 5.40457 5.89775 0 0 0 70.0108 
282.728 2.93543 0 2.93543 3.98367 0 0 0 69.3199 
282.889 1.27229 0 1.27229 2.63277 0 0 0 68.8435 
283.104 0.196925 0 0.196925 1.67235 0 0 0 68.5206 
283.351 -0.456349 0 -0.456349 0.988532 0 0 0 68.3068 
283.607 -0.811215 0 -0.811215 0.503442 0 0 0 68.1696 
283.854 -0.958724 0 -0.958724 0.162125 0 0 0 68.0854 
284.079 -0.964971 0 -0.964971 -0.0750596 0 0 0 68.0368 
284.274 -0.877185 0 -0.877185 -0.23705 0 0 0 68.0112 
284.433 -0.728526 0 -0.728526 -0.344964 0 0 0 67.9996 
284.553 -0.541866 0 -0.541866 -0.413976 0 0 0 67.9957 
284.634 -0.332805 0 -0.332805 -0.454548 0 0 0 67.9953 
284.674 -0.112127 0 -0.112127 -0.473251 0 0 0 67.9957 
250.984 41.9063 0 41.9063 86.6953 0 0 0 91.0519 
262.286 39.4136 0 39.4136 66.3163 0 0 0 86.7211 
271.412 33.5902 0 33.5902 48.3283 0 0 0 82.6017 
277.6 26.3505 0 26.3505 34.2878 0 0 0 79.0915 
281.297 19.3573 0 19.3573 24.0446 0 0 0 76.2828 
283.329 13.4404 0 13.4404 16.7732 0 0 0 74.1107 
284.385 8.80869 0 8.80869 11.64 0 0 0 72.4632 
284.913 5.36667 0 5.36667 8.00373 0 0 0 71.2292 
285.17 2.91273 0 2.91273 5.41442 0 0 0 70.3142 
285.295 1.23268 0 1.23268 3.56453 0 0 0 69.6422 
285.358 0.136492 0 0.136492 2.24303 0 0 0 69.1538 
285.392 -0.53133 0 -0.53133 1.30266 0 0 0 68.803 
285.414 -0.892338 0 -0.892338 0.638595 0 0 0 68.5542 
285.43 -1.03861 0 -1.03861 0.174893 0 0 0 68.3807 
285.443 -1.03814 0 -1.03814 -0.144098 0 0 0 68.2617 
285.453 -0.939992 0 -0.939992 -0.359332 0 0 0 68.1819 
285.462 -0.778757 0 -0.778757 -0.500786 0 0 0 68.1298 
285.469 -0.578298 0 -0.578298 -0.589995 0 0 0 68.0972 
285.473 -0.354832 0 -0.354832 -0.641786 0 0 0 68.0785 
285.475 -0.119492 0 -0.119492 -0.665446 0 0 0 68.0699 
249.178 32.7979 0 32.7979 86.2364 0 0 0 90.9798 
259.362 31.2211 0 31.2211 68.6628 0 0 0 87.3153 
268.308 27.3768 0 27.3768 52.5344 0 0 0 83.7228 
275.247 22.2417 0 22.2417 39.0258 0 0 0 80.4794 
280.115 16.8945 0 16.8945 28.4073 0 0 0 77.7189 
283.278 12.0672 0 12.0672 20.3679 0 0 0 75.4597 
285.207 8.09073 0 8.09073 14.4013 0 0 0 73.6586 
286.307 5.02058 0 5.02058 10.0185 0 0 0 72.2491 
286.876 2.76954 0 2.76954 6.81941 0 0 0 71.1615 
287.117 1.19654 0 1.19654 4.49758 0 0 0 70.3322 
287.162 0.154412 0 0.154412 2.82399 0 0 0 69.7069 
287.095 -0.488304 0 -0.488304 1.62838 0 0 0 69.2403 
286.971 -0.840021 0 -0.840021 0.783901 0 0 0 68.8961 
286.825 -0.985682 0 -0.985682 0.195806 0 0 0 68.6453 
286.678 -0.989411 0 -0.989411 -0.206751 0 0 0 68.465 
286.544 -0.898136 0 -0.898136 -0.476528 0 0 0 68.3377 
286.43 -0.745259 0 -0.745259 -0.652387 0 0 0 68.25 
286.342 -0.55397 0 -0.55397 -0.762322 0 0 0 68.1922 
286.282 -0.340102 0 -0.340102 -0.825621 0 0 0 68.1572 
286.252 -0.114562 0 -0.114562 -0.854364 0 0 0 68.1408 
248.168 24.6946 0 24.6946 85.9141 0 0 0 90.9774 
257.542 23.6657 0 23.6657 70.1137 0 0 0 87.7161 
266.155 21.1173 0 21.1173 55.3287 0 0 0 84.4757 
273.353 17.5672 0 17.5672 42.4167 0 0 0 81.4501 
278.879 13.6812 0 13.6812 31.7485 0 0 0 78.7672 
282.823 10.0021 0 10.0021 23.2794 0 0 0 76.4809 
285.455 6.84633 0 6.84633 16.7382 0 0 0 74.5899 
287.087 4.32934 0 4.32934 11.7821 0 0 0 73.0612 
288.002 2.43658 0 2.43658 8.08179 0 0 0 71.8474 
288.426 1.08764 0 1.08764 5.3538 0 0 0 70.898 
288.53 0.179639 0 0.179639 3.36745 0 0 0 70.1649 
288.438 -0.388428 0 -0.388428 1.94002 0 0 0 69.6055 
288.236 -0.704518 0 -0.704518 0.929121 0 0 0 69.1837 
287.985 -0.839958 0 -0.839958 0.224973 0 0 0 68.8694 
287.725 -0.849811 0 -0.849811 -0.256214 0 0 0 68.6384 