# vtk DataFile Version 2.0
Generated by inSilico's base::io::vtk::LegacyWriter
ASCII
DATASET UNSTRUCTURED_GRID
POINTS 441 float
0 0 0 
0.05 0 0 
0.1 0 0 
0.15 0 0 
0.2 0 0 
0.25 0 0 
0.3 0 0 
0.35 0 0 
0.4 0 0 
0.45 0 0 
0.5 0 0 
0.55 0 0 
0.6 0 0 
0.65 0 0 
0.7 0 0 
0.75 0 0 
0.8 0 0 
0.85 0 0 
0.9 0 0 
0.95 0 0 
1 0 0 
0 0.05 0 
0.05 0.05 0 
0.1 0.05 0 
0.15 0.05 0 
0.2 0.05 0 
0.25 0.05 0 
0.3 0.05 0 
0.35 0.05 0 
0.4 0.05 0 
0.45 0.05 0 
0.5 0.05 0 
0.55 0.05 0 
0.6 0.05 0 
0.65 0.05 0 
0.7 0.05 0 
0.75 0.05 0 
0.8 0.05 0 
0.85 0.05 0 
0.9 0.05 0 
0.95 0.05 0 
1 0.05 0 
0 0.1 0 
0.05 0.1 0 
0.1 0.1 0 
0.15 0.1 0 
0.2 0.1 0 
0.25 0.1 0 
0.3 0.1 0 
0.35 0.1 0 
0.4 0.1 0 
0.45 0.1 0 
0.5 0.1 0 
0.55 0.1 0 
0.6 0.1 0 
0.65 0.1 0 
0.7 0.1 0 
0.75 0.1 0 
0.8 0.1 0 
0.85 0.1 0 
0.9 0.1 0 
0.95 0.1 0 
1 0.1 0 
0 0.15 0 
0.05 0.15 0 
0.1 0.15 0 
0.15 0.15 0 
0.2 0.15 0 
0.25 0.15 0 
0.3 0.15 0 
0.35 0.15 0 
0.4 0.15 0 
0.45 0.15 0 
0.5 0.15 0 
0.55 0.15 0 
0.6 0.15 0 
0.65 0.15 0 
0.7 0.15 0 
0.75 0.15 0 
0.8 0.15 0 
0.85 0.15 0 
0.9 0.15 0 
0.95 0.15 0 
1 0.15 0 
0 0.2 0 
0.05 0.2 0 
0.1 0.2 0 
0.15 0.2 0 
0.2 0.2 0 
0.25 0.2 0 
0.3 0.2 0 
0.35 0.2 0 
0.4 0.2 0 
0.45 0.2 0 
0.5 0.2 0 
0.55 0.2 0 
0.6 0.2 0 
0.65 0.2 0 
0.7 0.2 0 
0.75 0.2 0 
0.8 0.2 0 
0.85 0.2 0 
0.9 0.2 0 
0.95 0.2 0 
1 0.2 0 
0 0.25 0 
0.05 0.25 0 
0.1 0.25 0 
0.15 0.25 0 
0.2 0.25 0 
0.25 0.25 0 
0.3 0.25 0 
0.35 0.25 0 
0.4 0.25 0 
0.45 0.25 0 
0.5 0.25 0 
0.55 0.25 0 
0.6 0.25 0 
0.65 0.25 0 
0.7 0.25 0 
0.75 0.25 0 
0.8 0.25 0 
0.85 0.25 0 
0.9 0.25 0 
0.95 0.25 0 
1 0.25 0 
0 0.3 0 
0.05 0.3 0 
0.1 0.3 0 
0.15 0.3 0 
0.2 0.3 0 
0.25 0.3 0 
0.3 0.3 0 
0.35 0.3 0 
0.4 0.3 0 
0.45 0.3 0 
0.5 0.3 0 
0.55 0.3 0 
0.6 0.3 0 
0.65 0.3 0 
0.7 0.3 0 
0.75 0.3 0 
0.8 0.3 0 
0.85 0.3 0 
0.9 0.3 0 
0.95 0.3 0 
1 0.3 0 
0 0.35 0 
0.05 0.35 0 
0.1 0.35 0 
0.15 0.35 0 
0.2 0.35 0 
0.25 0.35 0 
0.3 0.35 0 
0.35 0.35 0 
0.4 0.35 0 
0.45 0.35 0 
0.5 0.35 0 
0.55 0.35 0 
0.6 0.35 0 
0.65 0.35 0 
0.7 0.35 0 
0.75 0.35 0 
0.8 0.35 0 
0.85 0.35 0 
0.9 0.35 0 
0.95 0.35 0 
1 0.35 0 
0 0.4 0 
0.05 0.4 0 
0.1 0.4 0 
0.15 0.4 0 
0.2 0.4 0 
0.25 0.4 0 
0.3 0.4 0 
0.35 0.4 0 
0.4 0.4 0 
0.45 0.4 0 
0.5 0.4 0 
0.55 0.4 0 
0.6 0.4 0 
0.65 0.4 0 
0.7 0.4 0 
0.75 0.4 0 
0.8 0.4 0 
0.85 0.4 0 
0.9 0.4 0 
0.95 0.4 0 
1 0.4 0 
0 0.45 0 
0.05 0.45 0 
0.1 0.45 0 
0.15 0.45 0 
0.2 0.45 0 
0.25 0.45 0 
0.3 0.45 0 
0.35 0.45 0 
0.4 0.45 0 
0.45 0.45 0 
0.5 0.45 0 
0.55 0.45 0 
0.6 0.45 0 
0.65 0.45 0 
0.7 0.45 0 
0.75 0.45 0 
0.8 0.45 0 
0.85 0.45 0 
0.9 0.45 0 
0.95 0.45 0 
1 0.45 0 
0 0.5 0 
0.05 0.5 0 
0.1 0.5 0 
0.15 0.5 0 
0.2 0.5 0 
0.25 0.5 0 
0.3 0.5 0 
0.35 0.5 0 
0.4 0.5 0 
0.45 0.5 0 
0.5 0.5 0 
0.55 0.5 0 
0.6 0.5 0 
0.65 0.5 0 
0.7 0.5 0 
0.75 0.5 0 
0.8 0.5 0 
0.85 0.5 0 
0.9 0.5 0 
0.95 0.5 0 
1 0.5 0 
0 0.55 0 
0.05 0.55 0 
0.1 0.55 0 
0.15 0.55 0 
0.2 0.55 0 
0.25 0.55 0 
0.3 0.55 0 
0.35 0.55 0 
0.4 0.55 0 
0.45 0.55 0 
0.5 0.55 0 
0.55 0.55 0 
0.6 0.55 0 
0.65 0.55 0 
0.7 0.55 0 
0.75 0.55 0 
0.8 0.55 0 
0.85 0.55 0 
0.9 0.55 0 
0.95 0.55 0 
1 0.55 0 
0 0.6 0 
0.05 0.6 0 
0.1 0.6 0 
0.15 0.6 0 
0.2 0.6 0 
0.25 0.6 0 
0.3 0.6 0 
0.35 0.6 0 
0.4 0.6 0 
0.45 0.6 0 
0.5 0.6 0 
0.55 0.6 0 
0.6 0.6 0 
0.65 0.6 0 
0.7 0.6 0 
0.75 0.6 0 
0.8 0.6 0 
0.85 0.6 0 
0.9 0.6 0 
0.95 0.6 0 
1 0.6 0 
0 0.65 0 
0.05 0.65 0 
0.1 0.65 0 
0.15 0.65 0 
0.2 0.65 0 
0.25 0.65 0 
0.3 0.65 0 
0.35 0.65 0 
0.4 0.65 0 
0.45 0.65 0 
0.5 0.65 0 
0.55 0.65 0 
0.6 0.65 0 
0.65 0.65 0 
0.7 0.65 0 
0.75 0.65 0 
0.8 0.65 0 
0.85 0.65 0 
0.9 0.65 0 
0.95 0.65 0 
1 0.65 0 
0 0.7 0 
0.05 0.7 0 
0.1 0.7 0 
0.15 0.7 0 
0.2 0.7 0 
0.25 0.7 0 
0.3 0.7 0 
0.35 0.7 0 
0.4 0.7 0 
0.45 0.7 0 
0.5 0.7 0 
0.55 0.7 0 
0.6 0.7 0 
0.65 0.7 0 
0.7 0.7 0 
0.75 0.7 0 
0.8 0.7 0 
0.85 0.7 0 
0.9 0.7 0 
0.95 0.7 0 
1 0.7 0 
0 0.75 0 
0.05 0.75 0 
0.1 0.75 0 
0.15 0.75 0 
0.2 0.75 0 
0.25 0.75 0 
0.3 0.75 0 
0.35 0.75 0 
0.4 0.75 0 
0.45 0.75 0 
0.5 0.75 0 
0.55 0.75 0 
0.6 0.75 0 
0.65 0.75 0 
0.7 0.75 0 
0.75 0.75 0 
0.8 0.75 0 
0.85 0.75 0 
0.9 0.75 0 
0.95 0.75 0 
1 0.75 0 
0 0.8 0 
0.05 0.8 0 
0.1 0.8 0 
0.15 0.8 0 
0.2 0.8 0 
0.25 0.8 0 
0.3 0.8 0 
0.35 0.8 0 
0.4 0.8 0 
0.45 0.8 0 
0.5 0.8 0 
0.55 0.8 0 
0.6 0.8 0 
0.65 0.8 0 
0.7 0.8 0 
0.75 0.8 0 
0.8 0.8 0 
0.85 0.8 0 
0.9 0.8 0 
0.95 0.8 0 
1 0.8 0 
0 0.85 0 
0.05 0.85 0 
0.1 0.85 0 
0.15 0.85 0 
0.2 0.85 0 
0.25 0.85 0 
0.3 0.85 0 
0.35 0.85 0 
0.4 0.85 0 
0.45 0.85 0 
0.5 0.85 0 
0.55 0.85 0 
0.6 0.85 0 
0.65 0.85 0 
0.7 0.85 0 
0.75 0.85 0 
0.8 0.85 0 
0.85 0.85 0 
0.9 0.85 0 
0.95 0.85 0 
1 0.85 0 
0 0.9 0 
0.05 0.9 0 
0.1 0.9 0 
0.15 0.9 0 
0.2 0.9 0 
0.25 0.9 0 
0.3 0.9 0 
0.35 0.9 0 
0.4 0.9 0 
0.45 0.9 0 
0.5 0.9 0 
0.55 0.9 0 
0.6 0.9 0 
0.65 0.9 0 
0.7 0.9 0 
0.75 0.9 0 
0.8 0.9 0 
0.85 0.9 0 
0.9 0.9 0 
0.95 0.9 0 
1 0.9 0 
0 0.95 0 
0.05 0.95 0 
0.1 0.95 0 
0.15 0.95 0 
0.2 0.95 0 
0.25 0.95 0 
0.3 0.95 0 
0.35 0.95 0 
0.4 0.95 0 
0.45 0.95 0 
0.5 0.95 0 
0.55 0.95 0 
0.6 0.95 0 
0.65 0.95 0 
0.7 0.95 0 
0.75 0.95 0 
0.8 0.95 0 
0.85 0.95 0 
0.9 0.95 0 
0.95 0.95 0 
1 0.95 0 
0 1 0 
0.05 1 0 
0.1 1 0 
0.15 1 0 
0.2 1 0 
0.25 1 0 
0.3 1 0 
0.35 1 0 
0.4 1 0 
0.45 1 0 
0.5 1 0 
0.55 1 0 
0.6 1 0 
0.65 1 0 
0.7 1 0 
0.75 1 0 
0.8 1 0 
0.85 1 0 
0.9 1 0 
0.95 1 0 
1 1 0 
CELLS 400 2000
4 0 1 22 21 
4 1 2 23 22 
4 2 3 24 23 
4 3 4 25 24 
4 4 5 26 25 
4 5 6 27 26 
4 6 7 28 27 
4 7 8 29 28 
4 8 9 30 29 
4 9 10 31 30 
4 10 11 32 31 
4 11 12 33 32 
4 12 13 34 33 
4 13 14 35 34 
4 14 15 36 35 
4 15 16 37 36 
4 16 17 38 37 
4 17 18 39 38 
4 18 19 40 39 
4 19 20 41 40 
4 21 22 43 42 
4 22 23 44 43 
4 23 24 45 44 
4 24 25 46 45 
4 25 26 47 46 
4 26 27 48 47 
4 27 28 49 48 
4 28 29 50 49 
4 29 30 51 50 
4 30 31 52 51 
4 31 32 53 52 
4 32 33 54 53 
4 33 34 55 54 
4 34 35 56 55 
4 35 36 57 56 
4 36 37 58 57 
4 37 38 59 58 
4 38 39 60 59 
4 39 40 61 60 
4 40 41 62 61 
4 42 43 64 63 
4 43 44 65 64 
4 44 45 66 65 
4 45 46 67 66 
4 46 47 68 67 
4 47 48 69 68 
4 48 49 70 69 
4 49 50 71 70 
4 50 51 72 71 
4 51 52 73 72 
4 52 53 74 73 
4 53 54 75 74 
4 54 55 76 75 
4 55 56 77 76 
4 56 57 78 77 
4 57 58 79 78 
4 58 59 80 79 
4 59 60 81 80 
4 60 61 82 81 
4 61 62 83 82 
4 63 64 85 84 
4 64 65 86 85 
4 65 66 87 86 
4 66 67 88 87 
4 67 68 89 88 
4 68 69 90 89 
4 69 70 91 90 
4 70 71 92 91 
4 71 72 93 92 
4 72 73 94 93 
4 73 74 95 94 
4 74 75 96 95 
4 75 76 97 96 
4 76 77 98 97 
4 77 78 99 98 
4 78 79 100 99 
4 79 80 101 100 
4 80 81 102 101 
4 81 82 103 102 
4 82 83 104 103 
4 84 85 106 105 
4 85 86 107 106 
4 86 87 108 107 
4 87 88 109 108 
4 88 89 110 109 
4 89 90 111 110 
4 90 91 112 111 
4 91 92 113 112 
4 92 93 114 113 
4 93 94 115 114 
4 94 95 116 115 
4 95 96 117 116 
4 96 97 118 117 
4 97 98 119 118 
4 98 99 120 119 
4 99 100 121 120 
4 100 101 122 121 
4 101 102 123 122 
4 102 103 124 123 
4 103 104 125 124 
4 105 106 127 126 
4 106 107 128 127 
4 107 108 129 128 
4 108 109 130 129 
4 109 110 131 130 
4 110 111 132 131 
4 111 112 133 132 
4 112 113 134 133 
4 113 114 135 134 
4 114 115 136 135 
4 115 116 137 136 
4 116 117 138 137 
4 117 118 139 138 
4 118 119 140 139 
4 119 120 141 140 
4 120 121 142 141 
4 121 122 143 142 
4 122 123 144 143 
4 123 124 145 144 
4 124 125 146 145 
4 126 127 148 147 
4 127 128 149 148 
4 128 129 150 149 
4 129 130 151 150 
4 130 131 152 151 
4 131 132 153 152 
4 132 133 154 153 
4 133 134 155 154 
4 134 135 156 155 
4 135 136 157 156 
4 136 137 158 157 
4 137 138 159 158 
4 138 139 160 159 
4 139 140 161 160 
4 140 141 162 161 
4 141 142 163 162 
4 142 143 164 163 
4 143 144 165 164 
4 144 145 166 165 
4 145 146 167 166 
4 147 148 169 168 
4 148 149 170 169 
4 149 150 171 170 
4 150 151 172 171 
4 151 152 173 172 
4 152 153 174 173 
4 153 154 175 174 
4 154 155 176 175 
4 155 156 177 176 
4 156 157 178 177 
4 157 158 179 178 
4 158 159 180 179 
4 159 160 181 180 
4 160 161 182 181 
4 161 162 183 182 
4 162 163 184 183 
4 163 164 185 184 
4 164 165 186 185 
4 165 166 187 186 
4 166 167 188 187 
4 168 169 190 189 
4 169 170 191 190 
4 170 171 192 191 
4 171 172 193 192 
4 172 173 194 193 
4 173 174 195 194 
4 174 175 196 195 
4 175 176 197 196 
4 176 177 198 197 
4 177 178 199 198 
4 178 179 200 199 
4 179 180 201 200 
4 180 181 202 201 
4 181 182 203 202 
4 182 183 204 203 
4 183 184 205 204 
4 184 185 206 205 
4 185 186 207 206 
4 186 187 208 207 
4 187 188 209 208 
4 189 190 211 210 
4 190 191 212 211 
4 191 192 213 212 
4 192 193 214 213 
4 193 194 215 214 
4 194 195 216 215 
4 195 196 217 216 
4 196 197 218 217 
4 197 198 219 218 
4 198 199 220 219 
4 199 200 221 220 
4 200 201 222 221 
4 201 202 223 222 
4 202 203 224 223 
4 203 204 225 224 
4 204 205 226 225 
4 205 206 227 226 
4 206 207 228 227 
4 207 208 229 228 
4 208 209 230 229 
4 210 211 232 231 
4 211 212 233 232 
4 212 213 234 233 
4 213 214 235 234 
4 214 215 236 235 
4 215 216 237 236 
4 216 217 238 237 
4 217 218 239 238 
4 218 219 240 239 
4 219 220 241 240 
4 220 221 242 241 
4 221 222 243 242 
4 222 223 244 243 
4 223 224 245 244 
4 224 225 246 245 
4 225 226 247 246 
4 226 227 248 247 
4 227 228 249 248 
4 228 229 250 249 
4 229 230 251 250 
4 231 232 253 252 
4 232 233 254 253 
4 233 234 255 254 
4 234 235 256 255 
4 235 236 257 256 
4 236 237 258 257 
4 237 238 259 258 
4 238 239 260 259 
4 239 240 261 260 
4 240 241 262 261 
4 241 242 263 262 
4 242 243 264 263 
4 243 244 265 264 
4 244 245 266 265 
4 245 246 267 266 
4 246 247 268 267 
4 247 248 269 268 
4 248 249 270 269 
4 249 250 271 270 
4 250 251 272 271 
4 252 253 274 273 
4 253 254 275 274 
4 254 255 276 275 
4 255 256 277 276 
4 256 257 278 277 
4 257 258 279 278 
4 258 259 280 279 
4 259 260 281 280 
4 260 261 282 281 
4 261 262 283 282 
4 262 263 284 283 
4 263 264 285 284 
4 264 265 286 285 
4 265 266 287 286 
4 266 267 288 287 
4 267 268 289 288 
4 268 269 290 289 
4 269 270 291 290 
4 270 271 292 291 
4 271 272 293 292 
4 273 274 295 294 
4 274 275 296 295 
4 275 276 297 296 
4 276 277 298 297 
4 277 278 299 298 
4 278 279 300 299 
4 279 280 301 300 
4 280 281 302 301 
4 281 282 303 302 
4 282 283 304 303 
4 283 284 305 304 
4 284 285 306 305 
4 285 286 307 306 
4 286 287 308 307 
4 287 288 309 308 
4 288 289 310 309 
4 289 290 311 310 
4 290 291 312 311 
4 291 292 313 312 
4 292 293 314 313 
4 294 295 316 315 
4 295 296 317 316 
4 296 297 318 317 
4 297 298 319 318 
4 298 299 320 319 
4 299 300 321 320 
4 300 301 322 321 
4 301 302 323 322 
4 302 303 324 323 
4 303 304 325 324 
4 304 305 326 325 
4 305 306 327 326 
4 306 307 328 327 
4 307 308 329 328 
4 308 309 330 329 
4 309 310 331 330 
4 310 311 332 331 
4 311 312 333 332 
4 312 313 334 333 
4 313 314 335 334 
4 315 316 337 336 
4 316 317 338 337 
4 317 318 339 338 
4 318 319 340 339 
4 319 320 341 340 
4 320 321 342 341 
4 321 322 343 342 
4 322 323 344 343 
4 323 324 345 344 
4 324 325 346 345 
4 325 326 347 346 
4 326 327 348 347 
4 327 328 349 348 
4 328 329 350 349 
4 329 330 351 350 
4 330 331 352 351 
4 331 332 353 352 
4 332 333 354 353 
4 333 334 355 354 
4 334 335 356 355 
4 336 337 358 357 
4 337 338 359 358 
4 338 339 360 359 
4 339 340 361 360 
4 340 341 362 361 
4 341 342 363 362 
4 342 343 364 363 
4 343 344 365 364 
4 344 345 366 365 
4 345 346 367 366 
4 346 347 368 367 
4 347 348 369 368 
4 348 349 370 369 
4 349 350 371 370 
4 350 351 372 371 
4 351 352 373 372 
4 352 353 374 373 
4 353 354 375 374 
4 354 355 376 375 
4 355 356 377 376 
4 357 358 379 378 
4 358 359 380 379 
4 359 360 381 380 
4 360 361 382 381 
4 361 362 383 382 
4 362 363 384 383 
4 363 364 385 384 
4 364 365 386 385 
4 365 366 387 386 
4 366 367 388 387 
4 367 368 389 388 
4 368 369 390 389 
4 369 370 391 390 
4 370 371 392 391 
4 371 372 393 392 
4 372 373 394 393 
4 373 374 395 394 
4 374 375 396 395 
4 375 376 397 396 
4 376 377 398 397 
4 378 379 400 399 
4 379 380 401 400 
4 380 381 402 401 
4 381 382 403 402 
4 382 383 404 403 
4 383 384 405 404 
4 384 385 406 405 
4 385 386 407 406 
4 386 387 408 407 
4 387 388 409 408 
4 388 389 410 409 
4 389 390 411 410 
4 390 391 412 411 
4 391 392 413 412 
4 392 393 414 413 
4 393 394 415 414 
4 394 395 416 415 
4 395 396 417 416 
4 396 397 418 417 
4 397 398 419 418 
4 399 400 421 420 
4 400 401 422 421 
4 401 402 423 422 
4 402 403 424 423 
4 403 404 425 424 
4 404 405 426 425 
4 405 406 427 426 
4 406 407 428 427 
4 407 408 429 428 
4 408 409 430 429 
4 409 410 431 430 
4 410 411 432 431 
4 411 412 433 432 
4 412 413 434 433 
4 413 414 435 434 
4 414 415 436 435 
4 415 416 437 436 
4 416 417 438 437 
4 417 418 439 438 
4 418 419 440 439 
CELL_TYPES 400
9
9
9
9
9
9
9
9
9
9
9
9
9
9
9
9
9
9
9
9
9
9
9
9
9
9
9
9
9
9
9
9
9
9
9
9
9
9
9
9
9
9
9
9
9
9
9
9
9
9
9
9
9
9
9
9
9
9
9
9
9
9
9
9
9
9
9
9
9
9
9
9
9
9
9
9
9
9
9
9
9
9
9
9
9
9
9
9
9
9
9
9
9
9
9
9
9
9
9
9
9
9
9
9
9
9
9
9
9
9
9
9
9
9
9
9
9
9
9
9
9
9
9
9
9
9
9
9
9
9
9
9
9
9
9
9
9
9
9
9
9
9
9
9
9
9
9
9
9
9
9
9
9
9
9
9
9
9
9
9
9
9
9
9
9
9
9
9
9
9
9
9
9
9
9
9
9
9
9
9
9
9
9
9
9
9
9
9
9
9
9
9
9
9
9
9
9
9
9
9
9
9
9
9
9
9
9
9
9
9
9
9
9
9
9
9
9
9
9
9
9
9
9
9
9
9
9
9
9
9
9
9
9
9
9
9
9
9
9
9
9
9
9
9
9
9
9
9
9
9
9
9
9
9
9
9
9
9
9
9
9
9
9
9
9
9
9
9
9
9
9
9
9
9
9
9
9
9
9
9
9
9
9
9
9
9
9
9
9
9
9
9
9
9
9
9
9
9
9
9
9
9
9
9
9
9
9
9
9
9
9
9
9
9
9
9
9
9
9
9
9
9
9
9
9
9
9
9
9
9
9
9
9
9
9
9
9
9
9
9
9
9
9
9
9
9
9
9
9
9
9
9
9
9
9
9
9
9
9
9
9
9
9
9
9
9
9
9
9
9
9
9
9
9
9
9
9
9
9
9
9
9
9
9
9
9
9
9
9
9
9
9
9
9
9
9
9
9
9
9
POINT_DATA 441
VECTORS disp float 
0 0 0 
0.0137034 0.0130906 0 
0.0240868 0.0205884 0 
0.0336561 0.025784 0 
0.0429672 0.029599 0 
0.0522228 0.0324583 0 
0.0615142 0.0346154 0 
0.0708855 0.0362425 0 
0.080356 0.0374643 0 
0.0899316 0.0383754 0 
0.0996101 0.0390484 0 
0.109385 0.0395399 0 
0.119246 0.0398941 0 
0.129183 0.0401455 0 
0.139186 0.0403208 0 
0.149242 0.0404405 0 
0.159343 0.0405203 0 
0.169478 0.0405716 0 
0.179639 0.0406029 0 
0.189815 0.0406195 0 
0.2 0.0406247 0 
0 0 0 
0.00972179 0.00927486 0 
0.020391 0.0166056 0 
0.0306355 0.021913 0 
0.0405636 0.0258067 0 
0.0503294 0.0286997 0 
0.0600332 0.03086 0 
0.0697346 0.0324722 0 
0.0794679 0.0336696 0 
0.0892515 0.0345519 0 
0.0990936 0.0351952 0 
0.108996 0.0356583 0 
0.118956 0.0359865 0 
0.12897 0.0362149 0 
0.139031 0.0363705 0 
0.149132 0.0364739 0 
0.159266 0.0365405 0 
0.169427 0.0365819 0 
0.179607 0.0366062 0 
0.189801 0.0366186 0 
0.2 0.0366225 0 
0 0 0 
0.00871869 0.00706412 0 
0.0184719 0.0133633 0 
0.0285583 0.0183351 0 
0.0386391 0.022116 0 
0.048654 0.0249606 0 
0.0586199 0.0270892 0 
0.0685652 0.0286729 0 
0.0785137 0.0298419 0 
0.0884817 0.0306963 0 
0.0984788 0.0313128 0 
0.10851 0.0317511 0 
0.118576 0.032057 0 
0.128675 0.0322659 0 
0.138806 0.032405 0 
0.148963 0.0324947 0 
0.159143 0.0325505 0 
0.169342 0.0325836 0 
0.179554 0.0326021 0 
0.189775 0.0326111 0 
0.2 0.0326138 0 
0 0 0 
0.00834419 0.00558538 0 
0.0175384 0.0107917 0 
0.0272712 0.0151731 0 
0.0372453 0.0186525 0 
0.0473053 0.0213346 0 
0.057391 0.0233661 0 
0.0674856 0.0248845 0 
0.0775883 0.0260051 0 
0.087703 0.0268212 0 
0.0978333 0.0274065 0 
0.107982 0.0278187 0 
0.118149 0.0281031 0 
0.128336 0.0282942 0 
0.138539 0.0284189 0 
0.148758 0.0284972 0 
0.158991 0.028544 0 
0.169234 0.0285706 0 
0.179485 0.0285845 0 
0.189741 0.0285909 0 
0.2 0.0285927 0 
0 0 0 
0.00816867 0.00446168 0 
0.0170473 0.00869627 0 
0.026485 0.0124021 0 
0.0362809 0.0154556 0 
0.0462796 0.0178728 0 
0.056387 0.019735 0 
0.0665531 0.0211405 0 
0.0767526 0.0221825 0 
0.0869734 0.0229418 0 
0.0972095 0.023485 0 
0.107458 0.0238656 0 
0.117716 0.024126 0 
0.127983 0.0242991 0 
0.138258 0.0244101 0 
0.148539 0.0244782 0 
0.158825 0.0245177 0 
0.169115 0.024539 0 
0.179408 0.0245495 0 
0.189704 0.0245539 0 
0.2 0.0245551 0 
0 0 0 
0.00807579 0.00353328 0 
0.0167684 0.00691474 0 
0.025995 0.00994418 0 
0.0356233 0.0125091 0 
0.045525 0.0145878 0 
0.0556019 0.0162176 0 
0.0657874 0.0174623 0 
0.076039 0.0183917 0 
0.0863301 0.0190713 0 
0.0966446 0.0195578 0 
0.106972 0.0198979 0 
0.117307 0.0201295 0 
0.127645 0.0202823 0 
0.137984 0.0203792 0 
0.148323 0.0204376 0 
0.15866 0.0204706 0 
0.168996 0.0204877 0 
0.179332 0.0204955 0 
0.189666 0.0204986 0 
0.2 0.0204994 0 
0 0 0 
0.0080233 0.0027231 0 
0.0166014 0.00534044 0 
0.025683 0.00771912 0 
0.0351774 0.00977155 0 
0.0449833 0.0114661 0 
0.0550101 0.0128153 0 
0.0651865 0.0138577 0 
0.07546 0.0146423 0 
0.0857939 0.0152188 0 
0.0961631 0.0156324 0 
0.106551 0.0159216 0 
0.116947 0.0161181 0 
0.127343 0.0162471 0 
0.137737 0.0163283 0 
0.148125 0.0163767 0 
0.158509 0.0164036 0 
0.168887 0.016417 0 
0.17926 0.0164229 0 
0.189631 0.016425 0 
0.2 0.0164255 0 
0 0 0 
0.00799275 0.00198826 0 
0.0164991 0.00390392 0 
0.0254835 0.00566041 0 
0.0348797 0.00719541 0 
0.0446063 0.00848 0 
0.0545828 0.00951537 0 
0.0647386 0.0103233 0 
0.0750169 0.0109358 0 
0.0853745 0.0113882 0 
0.0957797 0.0117136 0 
0.10621 0.0119414 0 
0.116651 0.0120961 0 
0.127093 0.0121975 0 
0.137531 0.012261 0 
0.14796 0.0122986 0 
0.158381 0.0123192 0 
0.168794 0.0123293 0 
0.1792 0.0123335 0 
0.189601 0.0123349 0 
0.2 0.0123352 0 
0 0 0 
0.00797519 0.00130165 0 
0.0164377 0.00255751 0 
0.0253602 0.00371523 0 
0.03469 0.0047352 0 
0.0443591 0.00559658 0 
0.0542952 0.00629688 0 
0.0644302 0.00684736 0 
0.0747058 0.00726716 0 
0.0850751 0.00757842 0 
0.0955022 0.00780296 0 
0.105961 0.00796037 0 
0.116433 0.00806729 0 
0.126907 0.00813728 0 
0.137376 0.00818104 0 
0.147835 0.00820682 0 
0.158284 0.00822083 0 
0.168723 0.00822762 0 
0.179154 0.00823039 0 
0.189578 0.00823125 0 
0.2 0.00823141 0 
0 0 0 
0.00796609 0.000644001 0 
0.0164048 0.00126581 0 
0.0252928 0.00184068 0 
0.0345845 0.00234944 0 
0.0442192 0.00278134 0 
0.0541296 0.00313428 0 
0.06425 0.00341297 0 
0.0745217 0.00362626 0 
0.084896 0.00378484 0 
0.0953347 0.00389945 0 
0.105809 0.00397988 0 
0.1163 0.00403453 0 
0.126793 0.0040703 0 
0.137281 0.00409263 0 
0.147758 0.00410577 0 
0.158224 0.00411288 0 
0.168679 0.0041163 0 
0.179125 0.00411767 0 
0.189564 0.00411809 0 
0.2 0.00411816 0 
0 0 0 
0.00796327 4.05398e-17 0 
0.0163944 8.42094e-17 0 
0.0252713 1.35041e-16 0 
0.0345507 1.86246e-16 0 
0.0441739 2.333e-16 0 
0.0540756 2.85646e-16 0 
0.0641908 3.42073e-16 0 
0.0744608 4.00094e-16 0 
0.0848364 4.59295e-16 0 
0.0952787 5.17999e-16 0 
0.105759 5.89183e-16 0 
0.116255 6.5622e-16 0 
0.126755 7.05931e-16 0 
0.137248 7.66019e-16 0 
0.147732 8.10441e-16 0 
0.158204 8.90357e-16 0 
0.168664 9.22273e-16 0 
0.179115 9.48751e-16 0 
0.189559 9.50222e-16 0 
0.2 9.9687e-16 0 
0 0 0 
0.00796609 -0.000644001 0 
0.0164048 -0.00126581 0 
0.0252928 -0.00184068 0 
0.0345845 -0.00234944 0 
0.0442192 -0.00278134 0 
0.0541296 -0.00313428 0 
0.06425 -0.00341297 0 
0.0745217 -0.00362626 0 
0.084896 -0.00378484 0 
0.0953347 -0.00389945 0 
0.105809 -0.00397988 0 
0.1163 -0.00403453 0 
0.126793 -0.0040703 0 
0.137281 -0.00409263 0 
0.147758 -0.00410577 0 
0.158224 -0.00411288 0 
0.168679 -0.0041163 0 
0.179125 -0.00411767 0 
0.189564 -0.00411809 0 
0.2 -0.00411816 0 
0 0 0 
0.00797519 -0.00130165 0 
0.0164377 -0.00255751 0 
0.0253602 -0.00371523 0 
0.03469 -0.0047352 0 
0.0443591 -0.00559658 0 
0.0542952 -0.00629688 0 
0.0644302 -0.00684736 0 
0.0747058 -0.00726716 0 
0.0850751 -0.00757842 0 
0.0955022 -0.00780296 0 
0.105961 -0.00796037 0 
0.116433 -0.00806729 0 
0.126907 -0.00813728 0 
0.137376 -0.00818104 0 
0.147835 -0.00820682 0 
0.158284 -0.00822083 0 
0.168723 -0.00822762 0 
0.179154 -0.00823039 0 
0.189578 -0.00823125 0 
0.2 -0.00823141 0 
0 0 0 
0.00799275 -0.00198826 0 
0.0164991 -0.00390392 0 
0.0254835 -0.00566041 0 
0.0348797 -0.00719541 0 
0.0446063 -0.00848 0 
0.0545828 -0.00951537 0 
0.0647386 -0.0103233 0 
0.0750169 -0.0109358 0 
0.0853745 -0.0113882 0 
0.0957797 -0.0117136 0 
0.10621 -0.0119414 0 
0.116651 -0.0120961 0 
0.127093 -0.0121975 0 
0.137531 -0.012261 0 
0.14796 -0.0122986 0 
0.158381 -0.0123192 0 
0.168794 -0.0123293 0 
0.1792 -0.0123335 0 
0.189601 -0.0123349 0 
0.2 -0.0123352 0 
0 0 0 
0.0080233 -0.0027231 0 
0.0166014 -0.00534044 0 
0.025683 -0.00771912 0 
0.0351774 -0.00977155 0 
0.0449833 -0.0114661 0 
0.0550101 -0.0128153 0 
0.0651865 -0.0138577 0 
0.07546 -0.0146423 0 
0.0857939 -0.0152188 0 
0.0961631 -0.0156324 0 
0.106551 -0.0159216 0 
0.116947 -0.0161181 0 
0.127343 -0.0162471 0 
0.137737 -0.0163283 0 
0.148125 -0.0163767 0 
0.158509 -0.0164036 0 
0.168887 -0.016417 0 
0.17926 -0.0164229 0 
0.189631 -0.016425 0 
0.2 -0.0164255 0 
0 0 0 
0.00807579 -0.00353328 0 
0.0167684 -0.00691474 0 
0.025995 -0.00994418 0 
0.0356233 -0.0125091 0 
0.045525 -0.0145878 0 
0.0556019 -0.0162176 0 
0.0657874 -0.0174623 0 
0.076039 -0.0183917 0 
0.0863301 -0.0190713 0 
0.0966446 -0.0195578 0 
0.106972 -0.0198979 0 
0.117307 -0.0201295 0 
0.127645 -0.0202823 0 
0.137984 -0.0203792 0 
0.148323 -0.0204376 0 
0.15866 -0.0204706 0 
0.168996 -0.0204877 0 
0.179332 -0.0204955 0 
0.189666 -0.0204986 0 
0.2 -0.0204994 0 
0 0 0 
0.00816867 -0.00446168 0 
0.0170473 -0.00869627 0 
0.026485 -0.0124021 0 
0.0362809 -0.0154556 0 
0.0462796 -0.0178728 0 
0.056387 -0.019735 0 
0.0665531 -0.0211405 0 
0.0767526 -0.0221825 0 
0.0869734 -0.0229418 0 
0.0972095 -0.023485 0 
0.107458 -0.0238656 0 
0.117716 -0.024126 0 
0.127983 -0.0242991 0 
0.138258 -0.0244101 0 
0.148539 -0.0244782 0 
0.158825 -0.0245177 0 
0.169115 -0.024539 0 
0.179408 -0.0245495 0 
0.189704 -0.0245539 0 
0.2 -0.0245551 0 
0 0 0 
0.00834419 -0.00558538 0 
0.0175384 -0.0107917 0 
0.0272712 -0.0151731 0 
0.0372453 -0.0186525 0 
0.0473053 -0.0213346 0 
0.057391 -0.0233661 0 
0.0674856 -0.0248845 0 
0.0775883 -0.0260051 0 
0.087703 -0.0268212 0 
0.0978333 -0.0274065 0 
0.107982 -0.0278187 0 
0.118149 -0.0281031 0 
0.128336 -0.0282942 0 
0.138539 -0.0284189 0 
0.148758 -0.0284972 0 
0.158991 -0.028544 0 
0.169234 -0.0285706 0 
0.179485 -0.0285845 0 
0.189741 -0.0285909 0 
0.2 -0.0285927 0 
0 0 0 
0.00871869 -0.00706412 0 
0.0184719 -0.0133633 0 
0.0285583 -0.0183351 0 
0.0386391 -0.022116 0 
0.048654 -0.0249606 0 
0.0586199 -0.0270892 0 
0.0685652 -0.0286729 0 
0.0785137 -0.0298419 0 
0.0884817 -0.0306963 0 
0.0984788 -0.0313128 0 
0.10851 -0.0317511 0 
0.118576 -0.032057 0 
0.128675 -0.0322659 0 
0.138806 -0.032405 0 
0.148963 -0.0324947 0 
0.159143 -0.0325505 0 
0.169342 -0.0325836 0 
0.179554 -0.0326021 0 
0.189775 -0.0326111 0 
0.2 -0.0326138 0 
0 0 0 
0.00972179 -0.00927486 0 
0.020391 -0.0166056 0 
0.0306355 -0.021913 0 
0.0405636 -0.0258067 0 
0.0503294 -0.0286997 0 
0.0600332 -0.03086 0 
0.0697346 -0.0324722 0 
0.0794679 -0.0336696 0 
0.0892515 -0.0345519 0 
0.0990936 -0.0351952 0 
0.108996 -0.0356583 0 
0.118956 -0.0359865 0 
0.12897 -0.0362149 0 
0.139031 -0.0363705 0 
0.149132 -0.0364739 0 
0.159266 -0.0365405 0 
0.169427 -0.0365819 0 
0.179607 -0.0366062 0 
0.189801 -0.0366186 0 
0.2 -0.0366225 0 
0 0 0 
0.0137034 -0.0130906 0 
0.0240868 -0.0205884 0 
0.0336561 -0.025784 0 
0.0429672 -0.029599 0 
0.0522228 -0.0324583 0 
0.0615142 -0.0346154 0 
0.0708855 -0.0362425 0 
0.080356 -0.0374643 0 
0.0899316 -0.0383754 0 
0.0996101 -0.0390484 0 
0.109385 -0.0395399 0 
0.119246 -0.0398941 0 
0.129183 -0.0401455 0 
0.139186 -0.0403208 0 
0.149242 -0.0404405 0 
0.159343 -0.0405203 0 
0.169478 -0.0405716 0 
0.179639 -0.0406029 0 
0.189815 -0.0406195 0 
0.2 -0.0406247 0 
CELL_DATA 400
TENSORS sigma float 
249.895 76.138 0 76.138 35.6229 0 0 0 70.4748 
221.825 36.2863 0 36.2863 10.9686 0 0 0 58.9336 
206.873 21.5931 0 21.5931 4.98295 0 0 0 54.218 
199.853 14.2038 0 14.2038 2.72304 0 0 0 52.0884 
196.935 9.77543 0 9.77543 1.63412 0 0 0 51.1436 
196.205 6.85327 0 6.85327 1.03138 0 0 0 50.8045 
196.666 4.81958 0 4.81958 0.66715 0 0 0 50.791 
197.758 3.3637 0 3.3637 0.433247 0 0 0 50.9521 
199.15 2.30858 0 2.30858 0.276283 0 0 0 51.2006 
200.642 1.54302 0 1.54302 0.167564 0 0 0 51.4846 
202.109 0.991797 0 0.991797 0.0906134 0 0 0 51.7728 
203.478 0.601163 0 0.601163 0.0354247 0 0 0 52.0465 
204.708 0.331289 0 0.331289 -0.00439121 0 0 0 52.2951 
205.78 0.151984 0 0.151984 -0.0331027 0 0 0 52.5131 
206.685 0.0400826 0 0.0400826 -0.0536729 0 0 0 52.6983 
207.426 -0.0223025 0 -0.0223025 -0.0682178 0 0 0 52.8504 
208.006 -0.049037 0 -0.049037 -0.0782695 0 0 0 52.9699 
208.434 -0.0509499 0 -0.0509499 -0.0849312 0 0 0 53.0581 
208.715 -0.0366436 0 -0.0366436 -0.08897 0 0 0 53.1162 
208.854 -0.0131976 0 -0.0131976 -0.0908716 0 0 0 53.145 
211.39 60.871 0 60.871 64.1373 0 0 0 73.3733 
216.771 45.8751 0 45.8751 28.1203 0 0 0 63.3945 
212.649 29.3183 0 29.3183 14.0031 0 0 0 58.401 
208.071 18.7159 0 18.7159 7.88636 0 0 0 55.5996 
204.977 12.0522 0 12.0522 4.83504 0 0 0 53.99 
203.31 7.73061 0 7.73061 3.12507 0 0 0 53.0799 
202.681 4.85267 0 4.85267 2.07963 0 0 0 52.5952 
202.735 2.90979 0 2.90979 1.39842 0 0 0 52.3726 
203.208 1.59723 0 1.59723 0.93392 0 0 0 52.311 
203.911 0.721385 0 0.721385 0.607294 0 0 0 52.3453 
204.718 0.152982 0 0.152982 0.373243 0 0 0 52.4335 
205.541 -0.197539 0 -0.197539 0.20395 0 0 0 52.548 
206.327 -0.393776 0 -0.393776 0.081276 0 0 0 52.6708 
207.04 -0.481511 0 -0.481511 -0.00722778 0 0 0 52.7904 
207.662 -0.493855 0 -0.493855 -0.0704545 0 0 0 52.8995 
208.183 -0.454691 0 -0.454691 -0.114917 0 0 0 52.9939 
208.598 -0.381132 0 -0.381132 -0.145423 0 0 0 53.0709 
208.908 -0.285352 0 -0.285352 -0.165485 0 0 0 53.1294 
209.113 -0.176011 0 -0.176011 -0.177561 0 0 0 53.1685 
209.216 -0.0594263 0 -0.0594263 -0.183219 0 0 0 53.1881 
198.339 48.2237 0 48.2237 67.2968 0 0 0 72.3799 
207.294 41.803 0 41.803 41.4541 0 0 0 66.185 
210.475 30.887 0 30.887 24.3074 0 0 0 61.51 
210.16 21.1511 0 21.1511 14.7112 0 0 0 58.4143 
208.899 13.9366 0 13.9366 9.28545 0 0 0 56.3902 
207.758 8.87273 0 8.87273 6.05431 0 0 0 55.071 
207.024 5.38275 0 5.38275 4.02126 0 0 0 54.2194 
206.694 3.00574 0 3.00574 2.68152 0 0 0 53.6811 
206.68 1.41271 0 1.41271 1.76754 0 0 0 53.3537 
206.882 0.373149 0 0.373149 1.12929 0 0 0 53.1677 
207.215 -0.275531 0 -0.275531 0.677565 0 0 0 53.0753 
207.613 -0.649186 0 -0.649186 0.356214 0 0 0 53.0434 
208.028 -0.830969 0 -0.830969 0.128007 0 0 0 53.0488 
208.428 -0.880654 0 -0.880654 -0.0328501 0 0 0 53.0753 
208.791 -0.841017 0 -0.841017 -0.144813 0 0 0 53.1117 
209.104 -0.74235 0 -0.74235 -0.221349 0 0 0 53.1502 
209.359 -0.605781 0 -0.605781 -0.272331 0 0 0 53.1858 
209.552 -0.445777 0 -0.445777 -0.304899 0 0 0 53.215 
209.681 -0.272106 0 -0.272106 -0.324016 0 0 0 53.2354 
209.746 -0.0914177 0 -0.0914177 -0.332815 0 0 0 53.246 
192.623 38.5798 0 38.5798 67.4166 0 0 0 71.6744 
201.177 35.3228 0 35.3228 47.9899 0 0 0 67.3844 
206.74 28.5014 0 28.5014 32.1486 0 0 0 63.5272 
209.308 21.0049 0 21.0049 21.207 0 0 0 60.5338 
210.074 14.5349 0 14.5349 14.0693 0 0 0 58.337 
210.053 9.52487 0 9.52487 9.41951 0 0 0 56.7595 
209.803 5.85478 0 5.85478 6.33172 0 0 0 55.6392 
209.568 3.26091 0 3.26091 4.23355 0 0 0 54.8512 
209.429 1.48514 0 1.48514 2.77997 0 0 0 54.3033 
209.392 0.314215 0 0.314215 1.75973 0 0 0 53.9286 
209.439 -0.417588 0 -0.417588 1.03915 0 0 0 53.6777 
209.541 -0.835578 0 -0.835578 0.530264 0 0 0 53.5149 
209.676 -1.03299 0 -1.03299 0.172946 0 0 0 53.4137 
209.822 -1.07828 0 -1.07828 -0.0752408 0 0 0 53.3547 
209.965 -1.02096 0 -1.02096 -0.244953 0 0 0 53.3235 
210.095 -0.896239 0 -0.896239 -0.358616 0 0 0 53.3099 
210.205 -0.728638 0 -0.728638 -0.432637 0 0 0 53.3064 
210.29 -0.534835 0 -0.534835 -0.478835 0 0 0 53.3078 
210.348 -0.325953 0 -0.325953 -0.505381 0 0 0 53.3105 
210.377 -0.109425 0 -0.109425 -0.517414 0 0 0 53.3124 
189.768 30.7889 0 30.7889 67.2126 0 0 0 71.3208 
197.485 28.8902 0 28.8902 51.4322 0 0 0 67.9941 
203.592 24.5225 0 24.5225 37.407 0 0 0 64.7918 
207.595 19.0918 0 19.0918 26.4282 0 0 0 62.0467 
209.838 13.8461 0 13.8461 18.4175 0 0 0 59.843 
210.929 9.41525 0 9.41525 12.7381 0 0 0 58.1346 
211.373 5.95906 0 5.95906 8.73646 0 0 0 56.8362 
211.491 3.40541 0 3.40541 5.90843 0 0 0 55.8622 
211.465 1.60127 0 1.60127 3.90051 0 0 0 55.1394 
211.389 0.384012 0 0.384012 2.47132 0 0 0 54.6085 
211.305 -0.39062 0 -0.39062 1.45536 0 0 0 54.2231 
211.231 -0.840777 0 -0.840777 0.737122 0 0 0 53.9469 
211.172 -1.05891 0 -1.05891 0.234333 0 0 0 53.752 
211.129 -1.11512 0 -1.11512 -0.112726 0 0 0 53.6168 
211.098 -1.0612 0 -1.0612 -0.347937 0 0 0 53.525 
211.076 -0.93451 0 -0.93451 -0.503691 0 0 0 53.4642 
211.062 -0.76129 0 -0.76129 -0.603782 0 0 0 53.4252 
211.054 -0.55952 0 -0.55952 -0.665356 0 0 0 53.4011 
211.048 -0.341257 0 -0.341257 -0.700255 0 0 0 53.3875 
211.046 -0.114603 0 -0.114603 -0.715912 0 0 0 53.3814 
188.224 24.1264 0 24.1264 67.0334 0 0 0 71.1596 
195.227 22.9211 0 22.9211 53.4383 0 0 0 68.3667 
201.295 20.0457 0 20.0457 40.8831 0 0 0 65.6085 
205.917 16.2058 0 16.2058 30.3182 0 0 0 63.1054 
209.068 12.2005 0 12.2005 21.989 0 0 0 60.9668 
211.024 8.5805 0 8.5805 15.6728 0 0 0 59.2105 
212.131 5.59913 0 5.59913 10.9821 0 0 0 57.8053 
212.682 3.30202 0 3.30202 7.53705 0 0 0 56.7015 
212.89 1.62601 0 1.62601 5.02468 0 0 0 55.8464 
212.896 0.46594 0 0.46594 3.20463 0 0 0 55.192 
212.792 -0.288908 0 -0.288908 1.89675 0 0 0 54.6967 
212.633 -0.738139 0 -0.738139 0.9668 0 0 0 54.326 
212.456 -0.964327 0 -0.964327 0.314461 0 0 0 54.0517 
212.281 -1.03248 0 -1.03248 -0.135488 0 0 0 53.8514 
212.12 -0.991873 0 -0.991873 -0.439521 0 0 0 53.7073 
211.981 -0.878646 0 -0.878646 -0.639884 0 0 0 53.6054 
211.868 -0.718554 0 -0.718554 -0.767832 0 0 0 53.5352 
211.782 -0.529437 0 -0.529437 -0.845976 0 0 0 53.489 
211.724 -0.323398 0 -0.323398 -0.889948 0 0 0 53.461 
211.696 -0.108683 0 -0.108683 -0.909568 0 0 0 53.4479 
187.35 18.181 0 18.181 66.911 0 0 0 71.0936 
193.824 17.3912 0 17.3912 54.6868 0 0 0 68.6181 
199.706 15.4875 0 15.4875 43.1888 0 0 0 66.15 
204.558 12.8394 0 12.8394 33.0978 0 0 0 63.8374 
208.222 9.93444 0 9.93444 24.7256 0 0 0 61.7793 
210.773 7.17701 0 7.17701 18.0573 0 0 0 60.0182 
212.412 4.8072 0 4.8072 12.8943 0 0 0 58.5547 
213.365 2.91624 0 2.91624 8.97601 0 0 0 57.3653 
213.833 1.49701 0 1.49701 6.04807 0 0 0 56.4154 
213.977 0.491492 0 0.491492 3.88993 0 0 0 55.6679 
213.916 -0.176587 0 -0.176587 2.32081 0 0 0 55.0872 
213.735 -0.583211 0 -0.583211 1.19668 0 0 0 54.6413 
213.495 -0.795211 0 -0.795211 0.404674 0 0 0 54.3031 