# vtk DataFile Version 2.0
Generated by inSilico's base::io::vtk::LegacyWriter
ASCII
DATASET UNSTRUCTURED_GRID
POINTS 441 float
0 0 0 
0.05 0 0 
0.1 0 0 
0.15 0 0 
0.2 0 0 
0.25 0 0 
0.3 0 0 
0.35 0 0 
0.4 0 0 
0.45 0 0 
0.5 0 0 
0.55 0 0 
0.6 0 0 
0.65 0 0 
0.7 0 0 
0.75 0 0 
0.8 0 0 
0.85 0 0 
0.9 0 0 
0.95 0 0 
1 0 0 
0 0.05 0 
0.05 0.05 0 
0.1 0.05 0 
0.15 0.05 0 
0.2 0.05 0 
0.25 0.05 0 
0.3 0.05 0 
0.35 0.05 0 
0.4 0.05 0 
0.45 0.05 0 
0.5 0.05 0 
0.55 0.05 0 
0.6 0.05 0 
0.65 0.05 0 
0.7 0.05 0 
0.75 0.05 0 
0.8 0.05 0 
0.85 0.05 0 
0.9 0.05 0 
0.95 0.05 0 
1 0.05 0 
0 0.1 0 
0.05 0.1 0 
0.1 0.1 0 
0.15 0.1 0 
0.2 0.1 0 
0.25 0.1 0 
0.3 0.1 0 
0.35 0.1 0 
0.4 0.1 0 
0.45 0.1 0 
0.5 0.1 0 
0.55 0.1 0 
0.6 0.1 0 
0.65 0.1 0 
0.7 0.1 0 
0.75 0.1 0 
0.8 0.1 0 
0.85 0.1 0 
0.9 0.1 0 
0.95 0.1 0 
1 0.1 0 
0 0.15 0 
0.05 0.15 0 
0.1 0.15 0 
0.15 0.15 0 
0.2 0.15 0 
0.25 0.15 0 
0.3 0.15 0 
0.35 0.15 0 
0.4 0.15 0 
0.45 0.15 0 
0.5 0.15 0 
0.55 0.15 0 
0.6 0.15 0 
0.65 0.15 0 
0.7 0.15 0 
0.75 0.15 0 
0.8 0.15 0 
0.85 0.15 0 
0.9 0.15 0 
0.95 0.15 0 
1 0.15 0 
0 0.2 0 
0.05 0.2 0 
0.1 0.2 0 
0.15 0.2 0 
0.2 0.2 0 
0.25 0.2 0 
0.3 0.2 0 
0.35 0.2 0 
0.4 0.2 0 
0.45 0.2 0 
0.5 0.2 0 
0.55 0.2 0 
0.6 0.2 0 
0.65 0.2 0 
0.7 0.2 0 
0.75 0.2 0 
0.8 0.2 0 
0.85 0.2 0 
0.9 0.2 0 
0.95 0.2 0 
1 0.2 0 
0 0.25 0 
0.05 0.25 0 
0.1 0.25 0 
0.15 0.25 0 
0.2 0.25 0 
0.25 0.25 0 
0.3 0.25 0 
0.35 0.25 0 
0.4 0.25 0 
0.45 0.25 0 
0.5 0.25 0 
0.55 0.25 0 
0.6 0.25 0 
0.65 0.25 0 
0.7 0.25 0 
0.75 0.25 0 
0.8 0.25 0 
0.85 0.25 0 
0.9 0.25 0 
0.95 0.25 0 
1 0.25 0 
0 0.3 0 
0.05 0.3 0 
0.1 0.3 0 
0.15 0.3 0 
0.2 0.3 0 
0.25 0.3 0 
0.3 0.3 0 
0.35 0.3 0 
0.4 0.3 0 
0.45 0.3 0 
0.5 0.3 0 
0.55 0.3 0 
0.6 0.3 0 
0.65 0.3 0 
0.7 0.3 0 
0.75 0.3 0 
0.8 0.3 0 
0.85 0.3 0 
0.9 0.3 0 
0.95 0.3 0 
1 0.3 0 
0 0.35 0 
0.05 0.35 0 
0.1 0.35 0 
0.15 0.35 0 
0.2 0.35 0 
0.25 0.35 0 
0.3 0.35 0 
0.35 0.35 0 
0.4 0.35 0 
0.45 0.35 0 
0.5 0.35 0 
0.55 0.35 0 
0.6 0.35 0 
0.65 0.35 0 
0.7 0.35 0 
0.75 0.35 0 
0.8 0.35 0 
0.85 0.35 0 
0.9 0.35 0 
0.95 0.35 0 
1 0.35 0 
0 0.4 0 
0.05 0.4 0 
0.1 0.4 0 
0.15 0.4 0 
0.2 0.4 0 
0.25 0.4 0 
0.3 0.4 0 
0.35 0.4 0 
0.4 0.4 0 
0.45 0.4 0 
0.5 0.4 0 
0.55 0.4 0 
0.6 0.4 0 
0.65 0.4 0 
0.7 0.4 0 
0.75 0.4 0 
0.8 0.4 0 
0.85 0.4 0 
0.9 0.4 0 
0.95 0.4 0 
1 0.4 0 
0 0.45 0 
0.05 0.45 0 
0.1 0.45 0 
0.15 0.45 0 
0.2 0.45 0 
0.25 0.45 0 
0.3 0.45 0 
0.35 0.45 0 
0.4 0.45 0 
0.45 0.45 0 
0.5 0.45 0 
0.55 0.45 0 
0.6 0.45 0 
0.65 0.45 0 
0.7 0.45 0 
0.75 0.45 0 
0.8 0.45 0 
0.85 0.45 0 
0.9 0.45 0 
0.95 0.45 0 
1 0.45 0 
0 0.5 0 
0.05 0.5 0 
0.1 0.5 0 
0.15 0.5 0 
0.2 0.5 0 
0.25 0.5 0 
0.3 0.5 0 
0.35 0.5 0 
0.4 0.5 0 
0.45 0.5 0 
0.5 0.5 0 
0.55 0.5 0 
0.6 0.5 0 
0.65 0.5 0 
0.7 0.5 0 
0.75 0.5 0 
0.8 0.5 0 
0.85 0.5 0 
0.9 0.5 0 
0.95 0.5 0 
1 0.5 0 
0 0.55 0 
0.05 0.55 0 
0.1 0.55 0 
0.15 0.55 0 
0.2 0.55 0 
0.25 0.55 0 
0.3 0.55 0 
0.35 0.55 0 
0.4 0.55 0 
0.45 0.55 0 
0.5 0.55 0 
0.55 0.55 0 
0.6 0.55 0 
0.65 0.55 0 
0.7 0.55 0 
0.75 0.55 0 
0.8 0.55 0 
0.85 0.55 0 
0.9 0.55 0 
0.95 0.55 0 
1 0.55 0 
0 0.6 0 
0.05 0.6 0 
0.1 0.6 0 
0.15 0.6 0 
0.2 0.6 0 
0.25 0.6 0 
0.3 0.6 0 
0.35 0.6 0 
0.4 0.6 0 
0.45 0.6 0 
0.5 0.6 0 
0.55 0.6 0 
0.6 0.6 0 
0.65 0.6 0 
0.7 0.6 0 
0.75 0.6 0 
0.8 0.6 0 
0.85 0.6 0 
0.9 0.6 0 
0.95 0.6 0 
1 0.6 0 
0 0.65 0 
0.05 0.65 0 
0.1 0.65 0 
0.15 0.65 0 
0.2 0.65 0 
0.25 0.65 0 
0.3 0.65 0 
0.35 0.65 0 
0.4 0.65 0 
0.45 0.65 0 
0.5 0.65 0 
0.55 0.65 0 
0.6 0.65 0 
0.65 0.65 0 
0.7 0.65 0 
0.75 0.65 0 
0.8 0.65 0 
0.85 0.65 0 
0.9 0.65 0 
0.95 0.65 0 
1 0.65 0 
0 0.7 0 
0.05 0.7 0 
0.1 0.7 0 
0.15 0.7 0 
0.2 0.7 0 
0.25 0.7 0 
0.3 0.7 0 
0.35 0.7 0 
0.4 0.7 0 
0.45 0.7 0 
0.5 0.7 0 
0.55 0.7 0 
0.6 0.7 0 
0.65 0.7 0 
0.7 0.7 0 
0.75 0.7 0 
0.8 0.7 0 
0.85 0.7 0 
0.9 0.7 0 
0.95 0.7 0 
1 0.7 0 
0 0.75 0 
0.05 0.75 0 
0.1 0.75 0 
0.15 0.75 0 
0.2 0.75 0 
0.25 0.75 0 
0.3 0.75 0 
0.35 0.75 0 
0.4 0.75 0 
0.45 0.75 0 
0.5 0.75 0 
0.55 0.75 0 
0.6 0.75 0 
0.65 0.75 0 
0.7 0.75 0 
0.75 0.75 0 
0.8 0.75 0 
0.85 0.75 0 
0.9 0.75 0 
0.95 0.75 0 
1 0.75 0 
0 0.8 0 
0.05 0.8 0 
0.1 0.8 0 
0.15 0.8 0 
0.2 0.8 0 
0.25 0.8 0 
0.3 0.8 0 
0.35 0.8 0 
0.4 0.8 0 
0.45 0.8 0 
0.5 0.8 0 
0.55 0.8 0 
0.6 0.8 0 
0.65 0.8 0 
0.7 0.8 0 
0.75 0.8 0 
0.8 0.8 0 
0.85 0.8 0 
0.9 0.8 0 
0.95 0.8 0 
1 0.8 0 
0 0.85 0 
0.05 0.85 0 
0.1 0.85 0 
0.15 0.85 0 
0.2 0.85 0 
0.25 0.85 0 
0.3 0.85 0 
0.35 0.85 0 
0.4 0.85 0 
0.45 0.85 0 
0.5 0.85 0 
0.55 0.85 0 
0.6 0.85 0 
0.65 0.85 0 
0.7 0.85 0 
0.75 0.85 0 
0.8 0.85 0 
0.85 0.85 0 
0.9 0.85 0 
0.95 0.85 0 
1 0.85 0 
0 0.9 0 
0.05 0.9 0 
0.1 0.9 0 
0.15 0.9 0 
0.2 0.9 0 
0.25 0.9 0 
0.3 0.9 0 
0.35 0.9 0 
0.4 0.9 0 
0.45 0.9 0 
0.5 0.9 0 
0.55 0.9 0 
0.6 0.9 0 
0.65 0.9 0 
0.7 0.9 0 
0.75 0.9 0 
0.8 0.9 0 
0.85 0.9 0 
0.9 0.9 0 
0.95 0.9 0 
1 0.9 0 
0 0.95 0 
0.05 0.95 0 
0.1 0.95 0 
0.15 0.95 0 
0.2 0.95 0 
0.25 0.95 0 
0.3 0.95 0 
0.35 0.95 0 
0.4 0.95 0 
0.45 0.95 0 
0.5 0.95 0 
0.55 0.95 0 
0.6 0.95 0 
0.65 0.95 0 
0.7 0.95 0 
0.75 0.95 0 
0.8 0.95 0 
0.85 0.95 0 
0.9 0.95 0 
0.95 0.95 0 
1 0.95 0 
0 1 0 
0.05 1 0 
0.1 1 0 
0.15 1 0 
0.2 1 0 
0.25 1 0 
0.3 1 0 
0.35 1 0 
0.4 1 0 
0.45 1 0 
0.5 1 0 
0.55 1 0 
0.6 1 0 
0.65 1 0 
0.7 1 0 
0.75 1 0 
0.8 1 0 
0.85 1 0 
0.9 1 0 
0.95 1 0 
1 1 0 
CELLS 400 2000
4 0 1 22 21 
4 1 2 23 22 
4 2 3 24 23 
4 3 4 25 24 
4 4 5 26 25 
4 5 6 27 26 
4 6 7 28 27 
4 7 8 29 28 
4 8 9 30 29 
4 9 10 31 30 
4 10 11 32 31 
4 11 12 33 32 
4 12 13 34 33 
4 13 14 35 34 
4 14 15 36 35 
4 15 16 37 36 
4 16 17 38 37 
4 17 18 39 38 
4 18 19 40 39 
4 19 20 41 40 
4 21 22 43 42 
4 22 23 44 43 
4 23 24 45 44 
4 24 25 46 45 
4 25 26 47 46 
4 26 27 48 47 
4 27 28 49 48 
4 28 29 50 49 
4 29 30 51 50 
4 30 31 52 51 
4 31 32 53 52 
4 32 33 54 53 
4 33 34 55 54 
4 34 35 56 55 
4 35 36 57 56 
4 36 37 58 57 
4 37 38 59 58 
4 38 39 60 59 
4 39 40 61 60 
4 40 41 62 61 
4 42 43 64 63 
4 43 44 65 64 
4 44 45 66 65 
4 45 46 67 66 
4 46 47 68 67 
4 47 48 69 68 
4 48 49 70 69 
4 49 50 71 70 
4 50 51 72 71 
4 51 52 73 72 
4 52 53 74 73 
4 53 54 75 74 
4 54 55 76 75 
4 55 56 77 76 
4 56 57 78 77 
4 57 58 79 78 
4 58 59 80 79 
4 59 60 81 80 
4 60 61 82 81 
4 61 62 83 82 
4 63 64 85 84 
4 64 65 86 85 
4 65 66 87 86 
4 66 67 88 87 
4 67 68 89 88 
4 68 69 90 89 
4 69 70 91 90 
4 70 71 92 91 
4 71 72 93 92 
4 72 73 94 93 
4 73 74 95 94 
4 74 75 96 95 
4 75 76 97 96 
4 76 77 98 97 
4 77 78 99 98 
4 78 79 100 99 
4 79 80 101 100 
4 80 81 102 101 
4 81 82 103 102 
4 82 83 104 103 
4 84 85 106 105 
4 85 86 107 106 
4 86 87 108 107 
4 87 88 109 108 
4 88 89 110 109 
4 89 90 111 110 
4 90 91 112 111 
4 91 92 113 112 
4 92 93 114 113 
4 93 94 115 114 
4 94 95 116 115 
4 95 96 117 116 
4 96 97 118 117 
4 97 98 119 118 
4 98 99 120 119 
4 99 100 121 120 
4 100 101 122 121 
4 101 102 123 122 
4 102 103 124 123 
4 103 104 125 124 
4 105 106 127 126 
4 106 107 128 127 
4 107 108 129 128 
4 108 109 130 129 
4 109 110 131 130 
4 110 111 132 131 
4 111 112 133 132 
4 112 113 134 133 
4 113 114 135 134 
4 114 115 136 135 
4 115 116 137 136 
4 116 117 138 137 
4 117 118 139 138 
4 118 119 140 139 
4 119 120 141 140 
4 120 121 142 141 
4 121 122 143 142 
4 122 123 144 143 
4 123 124 145 144 
4 124 125 146 145 
4 126 127 148 147 
4 127 128 149 148 
4 128 129 150 149 
4 129 130 151 150 
4 130 131 152 151 
4 131 132 153 152 
4 132 133 154 153 
4 133 134 155 154 
4 134 135 156 155 
4 135 136 157 156 
4 136 137 158 157 
4 137 138 159 158 
4 138 139 160 159 
4 139 140 161 160 
4 140 141 162 161 
4 141 142 163 162 
4 142 143 164 163 
4 143 144 165 164 
4 144 145 166 165 
4 145 146 167 166 
4 147 148 169 168 
4 148 149 170 169 
4 149 150 171 170 
4 150 151 172 171 
4 151 152 173 172 
4 152 153 174 173 
4 153 154 175 174 
4 154 155 176 175 
4 155 156 177 176 
4 156 157 178 177 
4 157 158 179 178 
4 158 159 180 179 
4 159 160 181 180 
4 160 161 182 181 
4 161 162 183 182 
4 162 163 184 183 
4 163 164 185 184 
4 164 165 186 185 
4 165 166 187 186 
4 166 167 188 187 
4 168 169 190 189 
4 169 170 191 190 
4 170 171 192 191 
4 171 172 193 192 
4 172 173 194 193 
4 173 174 195 194 
4 174 175 196 195 
4 175 176 197 196 
4 176 177 198 197 
4 177 178 199 198 
4 178 179 200 199 
4 179 180 201 200 
4 180 181 202 201 
4 181 182 203 202 
4 182 183 204 203 
4 183 184 205 204 
4 184 185 206 205 
4 185 186 207 206 
4 186 187 208 207 
4 187 188 209 208 
4 189 190 211 210 
4 190 191 212 211 
4 191 192 213 212 
4 192 193 214 213 
4 193 194 215 214 
4 194 195 216 215 
4 195 196 217 216 
4 196 197 218 217 
4 197 198 219 218 
4 198 199 220 219 
4 199 200 221 220 
4 200 201 222 221 
4 201 202 223 222 
4 202 203 224 223 
4 203 204 225 224 
4 204 205 226 225 
4 205 206 227 226 
4 206 207 228 227 
4 207 208 229 228 
4 208 209 230 229 
4 210 211 232 231 
4 211 212 233 232 
4 212 213 234 233 
4 213 214 235 234 
4 214 215 236 235 
4 215 216 237 236 
4 216 217 238 237 
4 217 218 239 238 
4 218 219 240 239 
4 219 220 241 240 
4 220 221 242 241 
4 221 222 243 242 
4 222 223 244 243 
4 223 224 245 244 
4 224 225 246 245 
4 225 226 247 246 
4 226 227 248 247 
4 227 228 249 248 
4 228 229 250 249 
4 229 230 251 250 
4 231 232 253 252 
4 232 233 254 253 
4 233 234 255 254 
4 234 235 256 255 
4 235 236 257 256 
4 236 237 258 257 
4 237 238 259 258 
4 238 239 260 259 
4 239 240 261 260 
4 240 241 262 261 
4 241 242 263 262 
4 242 243 264 263 
4 243 244 265 264 
4 244 245 266 265 
4 245 246 267 266 
4 246 247 268 267 
4 247 248 269 268 
4 248 249 270 269 
4 249 250 271 270 
4 250 251 272 271 
4 252 253 274 273 
4 253 254 275 274 
4 254 255 276 275 
4 255 256 277 276 
4 256 257 278 277 
4 257 258 279 278 
4 258 259 280 279 
4 259 260 281 280 
4 260 261 282 281 
4 261 262 283 282 
4 262 263 284 283 
4 263 264 285 284 
4 264 265 286 285 
4 265 266 287 286 
4 266 267 288 287 
4 267 268 289 288 
4 268 269 290 289 
4 269 270 291 290 
4 270 271 292 291 
4 271 272 293 292 
4 273 274 295 294 
4 274 275 296 295 
4 275 276 297 296 
4 276 277 298 297 
4 277 278 299 298 
4 278 279 300 299 
4 279 280 301 300 
4 280 281 302 301 
4 281 282 303 302 
4 282 283 304 303 
4 283 284 305 304 
4 284 285 306 305 
4 285 286 307 306 
4 286 287 308 307 
4 287 288 309 308 
4 288 289 310 309 
4 289 290 311 310 
4 290 291 312 311 
4 291 292 313 312 
4 292 293 314 313 
4 294 295 316 315 
4 295 296 317 316 
4 296 297 318 317 
4 297 298 319 318 
4 298 299 320 319 
4 299 300 321 320 
4 300 301 322 321 
4 301 302 323 322 
4 302 303 324 323 
4 303 304 325 324 
4 304 305 326 325 
4 305 306 327 326 
4 306 307 328 327 
4 307 308 329 328 
4 308 309 330 329 
4 309 310 331 330 
4 310 311 332 331 
4 311 312 333 332 
4 312 313 334 333 
4 313 314 335 334 
4 315 316 337 336 
4 316 317 338 337 
4 317 318 339 338 
4 318 319 340 339 
4 319 320 341 340 
4 320 321 342 341 
4 321 322 343 342 
4 322 323 344 343 
4 323 324 345 344 
4 324 325 346 345 
4 325 326 347 346 
4 326 327 348 347 
4 327 328 349 348 
4 328 329 350 349 
4 329 330 351 350 
4 330 331 352 351 
4 331 332 353 352 
4 332 333 354 353 
4 333 334 355 354 
4 334 335 356 355 
4 336 337 358 357 
4 337 338 359 358 
4 338 339 360 359 
4 339 340 361 360 
4 340 341 362 361 
4 341 342 363 362 
4 342 343 364 363 
4 343 344 365 364 
4 344 345 366 365 
4 345 346 367 366 
4 346 347 368 367 
4 347 348 369 368 
4 348 349 370 369 
4 349 350 371 370 
4 350 351 372 371 
4 351 352 373 372 
4 352 353 374 373 
4 353 354 375 374 
4 354 355 376 375 
4 355 356 377 376 
4 357 358 379 378 
4 358 359 380 379 
4 359 360 381 380 
4 360 361 382 381 
4 361 362 383 382 
4 362 363 384 383 
4 363 364 385 384 
4 364 365 386 385 
4 365 366 387 386 
4 366 367 388 387 
4 367 368 389 388 
4 368 369 390 389 
4 369 370 391 390 
4 370 371 392 391 
4 371 372 393 392 
4 372 373 394 393 
4 373 374 395 394 
4 374 375 396 395 
4 375 376 397 396 
4 376 377 398 397 
4 378 379 400 399 
4 379 380 401 400 
4 380 381 402 401 
4 381 382 403 402 
4 382 383 404 403 
4 383 384 405 404 
4 384 385 406 405 
4 385 386 407 406 
4 386 387 408 407 
4 387 388 409 408 
4 388 389 410 409 
4 389 390 411 410 
4 390 391 412 411 
4 391 392 413 412 
4 392 393 414 413 
4 393 394 415 414 
4 394 395 416 415 
4 395 396 417 416 
4 396 397 418 417 
4 397 398 419 418 
4 399 400 421 420 
4 400 401 422 421 
4 401 402 423 422 
4 402 403 424 423 
4 403 404 425 424 
4 404 405 426 425 
4 405 406 427 426 
4 406 407 428 427 
4 407 408 429 428 
4 408 409 430 429 
4 409 410 431 430 
4 410 411 432 431 
4 411 412 433 432 
4 412 413 434 433 
4 413 414 435 434 
4 414 415 436 435 
4 415 416 437 436 
4 416 417 438 437 
4 417 418 439 438 
4 418 419 440 439 
CELL_TYPES 400
9
9
9
9
9
9
9
9
9
9
9
9
9
9
9
9
9
9
9
9
9
9
9
9
9
9
9
9
9
9
9
9
9
9
9
9
9
9
9
9
9
9
9
9
9
9
9
9
9
9
9
9
9
9
9
9
9
9
9
9
9
9
9
9
9
9
9
9
9
9
9
9
9
9
9
9
9
9
9
9
9
9
9
9
9
9
9
9
9
9
9
9
9
9
9
9
9
9
9
9
9
9
9
9
9
9
9
9
9
9
9
9
9
9
9
9
9
9
9
9
9
9
9
9
9
9
9
9
9
9
9
9
9
9
9
9
9
9
9
9
9
9
9
9
9
9
9
9
9
9
9
9
9
9
9
9
9
9
9
9
9
9
9
9
9
9
9
9
9
9
9
9
9
9
9
9
9
9
9
9
9
9
9
9
9
9
9
9
9
9
9
9
9
9
9
9
9
9
9
9
9
9
9
9
9
9
9
9
9
9
9
9
9
9
9
9
9
9
9
9
9
9
9
9
9
9
9
9
9
9
9
9
9
9
9
9
9
9
9
9
9
9
9
9
9
9
9
9
9
9
9
9
9
9
9
9
9
9
9
9
9
9
9
9
9
9
9
9
9
9
9
9
9
9
9
9
9
9
9
9
9
9
9
9
9
9
9
9
9
9
9
9
9
9
9
9
9
9
9
9
9
9
9
9
9
9
9
9
9
9
9
9
9
9
9
9
9
9
9
9
9
9
9
9
9
9
9
9
9
9
9
9
9
9
9
9
9
9
9
9
9
9
9
9
9
9
9
9
9
9
9
9
9
9
9
9
9
9
9
9
9
9
9
9
9
9
9
9
9
9
9
9
9
9
9
9
9
9
9
9
9
9
9
9
9
9
9
9
9
9
9
9
9
9
9
9
9
9
9
9
POINT_DATA 441
VECTORS disp float 
0 0 0 
0.0275011 0.0273178 0 
0.0499686 0.0426474 0 
0.0713371 0.0531421 0 
0.0924399 0.0607687 0 
0.113571 0.0664324 0 
0.134856 0.0706701 0 
0.156348 0.0738436 0 
0.178063 0.0762132 0 
0.199996 0.0779735 0 
0.222133 0.0792722 0 
0.244452 0.0802225 0 
0.266931 0.0809114 0 
0.289547 0.0814056 0 
0.312277 0.0817557 0 
0.3351 0.0820003 0 
0.357996 0.0821677 0 
0.38095 0.082279 0 
0.403944 0.0823489 0 
0.426966 0.0823871 0 
0.45 0.0823993 0 
0 0 0 
0.0212878 0.0197867 0 
0.0442248 0.0346404 0 
0.0666734 0.045258 0 
0.0887584 0.0529838 0 
0.110696 0.0586813 0 
0.132626 0.0629073 0 
0.154628 0.0660434 0 
0.176744 0.0683635 0 
0.198991 0.0700705 0 
0.221371 0.0713173 0 
0.24388 0.07222 0 
0.266504 0.0728668 0 
0.289231 0.073325 0 
0.312046 0.0736452 0 
0.334933 0.0738654 0 
0.357879 0.0740138 0 
0.380871 0.0741109 0 
0.403896 0.0741709 0 
0.426943 0.0742033 0 
0.45 0.0742135 0 
0 0 0 
0.0195771 0.0151556 0 
0.0411385 0.0280994 0 
0.063385 0.0380618 0 
0.0857431 0.0455297 0 
0.108095 0.0510928 0 
0.130451 0.055224 0 
0.152844 0.0582799 0 
0.175299 0.0605278 0 
0.197834 0.0621697 0 
0.220454 0.0633585 0 
0.243158 0.0642107 0 
0.265942 0.0648145 0 
0.288797 0.0652367 0 
0.311715 0.0655274 0 
0.334686 0.0657242 0 
0.357699 0.0658543 0 
0.380746 0.0659378 0 
0.403817 0.0659885 0 
0.426905 0.0660155 0 
0.45 0.066024 0 
0 0 0 
0.0189234 0.0119888 0 
0.0395682 0.0227965 0 
0.0612774 0.0316447 0 
0.0834982 0.0385327 0 
0.10595 0.0437656 0 
0.128518 0.047686 0 
0.151163 0.0505929 0 
0.173874 0.0527278 0 
0.196646 0.0542804 0 
0.219479 0.0553974 0 
0.242368 0.0561916 0 
0.265309 0.0567487 0 
0.288297 0.0571336 0 
0.311326 0.057395 0 
0.334388 0.0575689 0 
0.357478 0.0576819 0 
0.38059 0.0577529 0 
0.403718 0.0577951 0 
0.426857 0.0578172 0 
0.45 0.057824 0 
0 0 0 
0.0186235 0.00956707 0 
0.0387224 0.018412 0 
0.0599492 0.0259538 0 
0.0818993 0.0320303 0 
0.104276 0.0367534 0 
0.126903 0.0403393 0 
0.149684 0.0430157 0 
0.172565 0.0449849 0 
0.195517 0.046415 0 
0.218525 0.0474398 0 
0.241576 0.048164 0 
0.264662 0.048668 0 
0.287776 0.0490126 0 
0.310913 0.0492438 0 
0.334069 0.0493953 0 
0.357239 0.0494919 0 
0.38042 0.0495514 0 
0.403609 0.049586 0 
0.426803 0.0496038 0 
0.45 0.0496092 0 
0 0 0 
0.0184716 0.00756638 0 
0.0382392 0.0146551 0 
0.0591033 0.0208576 0 
0.0807816 0.0259904 0 
0.103016 0.0300656 0 
0.125614 0.0332049 0 
0.148446 0.0355685 0 
0.171428 0.037315 0 
0.194509 0.0385844 0 
0.217652 0.0394925 0 
0.240836 0.0401317 0 
0.264046 0.0405738 0 
0.287274 0.0408737 0 
0.310511 0.0410728 0 
0.333755 0.0412016 0 
0.357002 0.0412824 0 
0.38025 0.0413312 0 
0.4035 0.041359 0 
0.42675 0.041373 0 
0.45 0.0413773 0 
0 0 0 
0.0183906 0.00582438 0 
0.0379514 0.0113229 0 
0.0585579 0.0162143 0 
0.0800094 0.0203413 0 
0.102093 0.0236755 0 
0.124623 0.0262786 0 
0.147458 0.0282563 0 
0.170493 0.0297255 0 
0.193657 0.0307957 0 
0.2169 0.0315612 0 
0.240188 0.0320987 0 
0.2635 0.032469 0 
0.286822 0.0327187 0 
0.310146 0.0328831 0 
0.333467 0.0329884 0 
0.356783 0.0330535 0 
0.380093 0.0330922 0 
0.403398 0.0331138 0 
0.4267 0.0331246 0 
0.45 0.0331278 0 
0 0 0 
0.0183464 0.00424853 0 
0.0377769 0.00827802 0 
0.058207 0.0119008 0 
0.0794868 0.0149987 0 
0.10144 0.0175346 0 
0.123896 0.0195362 0 
0.146711 0.0210691 0 
0.169768 0.0222138 0 
0.192984 0.02305 0 
0.216295 0.0236484 0 
0.23966 0.0240683 0 
0.26305 0.0243567 0 
0.286447 0.0245505 0 
0.309841 0.0246773 0 
0.333225 0.0247578 0 
0.356598 0.0248071 0 
0.379959 0.024836 0 
0.403312 0.0248519 0 
0.426658 0.0248597 0 
0.45 0.024862 0 
0 0 0 
0.0183225 0.00277945 0 
0.0376734 0.00542298 0 
0.0579894 0.00781537 0 
0.0791511 0.0098791 0 
0.101007 0.0115838 0 
0.123402 0.0129399 0 
0.146191 0.013985 0 
0.169255 0.0147687 0 
0.192499 0.0153426 0 
0.215855 0.0157537 0 
0.239272 0.016042 0 
0.262717 0.0162399 0 
0.286167 0.0163724 0 
0.309611 0.0164587 0 
0.333042 0.0165133 0 
0.356457 0.0165465 0 
0.379858 0.0165657 0 
0.403246 0.0165762 0 
0.426625 0.0165813 0 
0.45 0.0165827 0 
0 0 0 
0.0183108 0.00137459 0 
0.0376184 0.00268393 0 
0.0578705 0.00387316 0 
0.0789634 0.00490408 0 
0.100761 0.0057601 0 
0.123115 0.00644437 0 
0.145885 0.00697369 0 
0.168948 0.00737173 0 
0.192208 0.00766369 0 
0.215588 0.00787302 0 
0.239035 0.00801982 0 
0.262511 0.00812046 0 
0.285994 0.00818777 0 
0.309469 0.00823155 0 
0.332928 0.00825911 0 
0.35637 0.0082758 0 
0.379795 0.00828544 0 
0.403205 0.00829065 0 
0.426605 0.00829314 0 
0.45 0.00829387 0 
0 0 0 
0.0183072 6.23204e-18 0 
0.0376012 1.4975e-17 0 
0.0578326 2.47334e-17 0 
0.0789031 3.57448e-17 0 
0.100681 4.46149e-17 0 
0.123021 4.97176e-17 0 
0.145784 5.70104e-17 0 
0.168847 6.05866e-17 0 
0.19211 6.44694e-17 0 
0.215498 7.87148e-17 0 
0.238955 7.00259e-17 0 
0.262442 9.91198e-17 0 
0.285936 8.11796e-17 0 
0.309421 8.80609e-17 0 
0.33289 9.61484e-17 0 
0.35634 1.251e-16 0 
0.379773 1.16618e-16 0 
0.403191 1.37086e-16 0 
0.426598 1.42302e-16 0 
0.45 1.76752e-16 0 
0 0 0 
0.0183108 -0.00137459 0 
0.0376184 -0.00268393 0 
0.0578705 -0.00387316 0 
0.0789634 -0.00490408 0 
0.100761 -0.0057601 0 
0.123115 -0.00644437 0 
0.145885 -0.00697369 0 
0.168948 -0.00737173 0 
0.192208 -0.00766369 0 
0.215588 -0.00787302 0 
0.239035 -0.00801982 0 
0.262511 -0.00812046 0 
0.285994 -0.00818777 0 
0.309469 -0.00823155 0 
0.332928 -0.00825911 0 
0.35637 -0.0082758 0 
0.379795 -0.00828544 0 
0.403205 -0.00829065 0 
0.426605 -0.00829314 0 
0.45 -0.00829387 0 
0 0 0 
0.0183225 -0.00277945 0 
0.0376734 -0.00542298 0 
0.0579894 -0.00781537 0 
0.0791511 -0.0098791 0 
0.101007 -0.0115838 0 
0.123402 -0.0129399 0 
0.146191 -0.013985 0 
0.169255 -0.0147687 0 
0.192499 -0.0153426 0 
0.215855 -0.0157537 0 
0.239272 -0.016042 0 
0.262717 -0.0162399 0 
0.286167 -0.0163724 0 
0.309611 -0.0164587 0 
0.333042 -0.0165133 0 
0.356457 -0.0165465 0 
0.379858 -0.0165657 0 
0.403246 -0.0165762 0 
0.426625 -0.0165813 0 
0.45 -0.0165827 0 
0 0 0 
0.0183464 -0.00424853 0 
0.0377769 -0.00827802 0 
0.058207 -0.0119008 0 
0.0794868 -0.0149987 0 
0.10144 -0.0175346 0 
0.123896 -0.0195362 0 
0.146711 -0.0210691 0 
0.169768 -0.0222138 0 
0.192984 -0.02305 0 
0.216295 -0.0236484 0 
0.23966 -0.0240683 0 
0.26305 -0.0243567 0 
0.286447 -0.0245505 0 
0.309841 -0.0246773 0 
0.333225 -0.0247578 0 
0.356598 -0.0248071 0 
0.379959 -0.024836 0 
0.403312 -0.0248519 0 
0.426658 -0.0248597 0 
0.45 -0.024862 0 
0 0 0 
0.0183906 -0.00582438 0 
0.0379514 -0.0113229 0 
0.0585579 -0.0162143 0 
0.0800094 -0.0203413 0 
0.102093 -0.0236755 0 
0.124623 -0.0262786 0 
0.147458 -0.0282563 0 
0.170493 -0.0297255 0 
0.193657 -0.0307957 0 
0.2169 -0.0315612 0 
0.240188 -0.0320987 0 
0.2635 -0.032469 0 
0.286822 -0.0327187 0 
0.310146 -0.0328831 0 
0.333467 -0.0329884 0 
0.356783 -0.0330535 0 
0.380093 -0.0330922 0 
0.403398 -0.0331138 0 
0.4267 -0.0331246 0 
0.45 -0.0331278 0 
0 0 0 
0.0184716 -0.00756638 0 
0.0382392 -0.0146551 0 
0.0591033 -0.0208576 0 
0.0807816 -0.0259904 0 
0.103016 -0.0300656 0 
0.125614 -0.0332049 0 
0.148446 -0.0355685 0 
0.171428 -0.037315 0 
0.194509 -0.0385844 0 
0.217652 -0.0394925 0 
0.240836 -0.0401317 0 
0.264046 -0.0405738 0 
0.287274 -0.0408737 0 
0.310511 -0.0410728 0 
0.333755 -0.0412016 0 
0.357002 -0.0412824 0 
0.38025 -0.0413312 0 
0.4035 -0.041359 0 
0.42675 -0.041373 0 
0.45 -0.0413773 0 
0 0 0 
0.0186235 -0.00956707 0 
0.0387224 -0.018412 0 
0.0599492 -0.0259538 0 
0.0818993 -0.0320303 0 
0.104276 -0.0367534 0 
0.126903 -0.0403393 0 
0.149684 -0.0430157 0 
0.172565 -0.0449849 0 
0.195517 -0.046415 0 
0.218525 -0.0474398 0 
0.241576 -0.048164 0 
0.264662 -0.048668 0 
0.287776 -0.0490126 0 
0.310913 -0.0492438 0 
0.334069 -0.0493953 0 
0.357239 -0.0494919 0 
0.38042 -0.0495514 0 
0.403609 -0.049586 0 
0.426803 -0.0496038 0 
0.45 -0.0496092 0 
0 0 0 
0.0189234 -0.0119888 0 
0.0395682 -0.0227965 0 
0.0612774 -0.0316447 0 
0.0834982 -0.0385327 0 
0.10595 -0.0437656 0 
0.128518 -0.047686 0 
0.151163 -0.0505929 0 
0.173874 -0.0527278 0 
0.196646 -0.0542804 0 
0.219479 -0.0553974 0 
0.242368 -0.0561916 0 
0.265309 -0.0567487 0 
0.288297 -0.0571336 0 
0.311326 -0.057395 0 
0.334388 -0.0575689 0 
0.357478 -0.0576819 0 
0.38059 -0.0577529 0 
0.403718 -0.0577951 0 
0.426857 -0.0578172 0 
0.45 -0.057824 0 
0 0 0 
0.0195771 -0.0151556 0 
0.0411385 -0.0280994 0 
0.063385 -0.0380618 0 
0.0857431 -0.0455297 0 
0.108095 -0.0510928 0 
0.130451 -0.055224 0 
0.152844 -0.0582799 0 
0.175299 -0.0605278 0 
0.197834 -0.0621697 0 
0.220454 -0.0633585 0 
0.243158 -0.0642107 0 
0.265942 -0.0648145 0 
0.288797 -0.0652367 0 
0.311715 -0.0655274 0 
0.334686 -0.0657242 0 
0.357699 -0.0658543 0 
0.380746 -0.0659378 0 
0.403817 -0.0659885 0 
0.426905 -0.0660155 0 
0.45 -0.066024 0 
0 0 0 
0.0212878 -0.0197867 0 
0.0442248 -0.0346404 0 
0.0666734 -0.045258 0 
0.0887584 -0.0529838 0 
0.110696 -0.0586813 0 
0.132626 -0.0629073 0 
0.154628 -0.0660434 0 
0.176744 -0.0683635 0 
0.198991 -0.0700705 0 
0.221371 -0.0713173 0 
0.24388 -0.07222 0 
0.266504 -0.0728668 0 
0.289231 -0.073325 0 
0.312046 -0.0736452 0 
0.334933 -0.0738654 0 
0.357879 -0.0740138 0 
0.380871 -0.0741109 0 
0.403896 -0.0741709 0 
0.426943 -0.0742033 0 
0.45 -0.0742135 0 
0 0 0 
0.0275011 -0.0273178 0 
0.0499686 -0.0426474 0 
0.0713371 -0.0531421 0 
0.0924399 -0.0607687 0 
0.113571 -0.0664324 0 
0.134856 -0.0706701 0 
0.156348 -0.0738436 0 
0.178063 -0.0762132 0 
0.199996 -0.0779735 0 
0.222133 -0.0792722 0 
0.244452 -0.0802225 0 
0.266931 -0.0809114 0 
0.289547 -0.0814056 0 
0.312277 -0.0817557 0 
0.3351 -0.0820003 0 
0.357996 -0.0821677 0 
0.38095 -0.082279 0 
0.403944 -0.0823489 0 
0.426966 -0.0823871 0 
0.45 -0.0823993 0 
CELL_DATA 400
TENSORS sigma float 
480.911 190.415 0 190.415 99.1085 0 0 0 116.287 
452.733 103.721 0 103.721 33.6969 0 0 0 101.817 
435.028 66.9385 0 66.9385 16.1945 0 0 0 96.1145 
427.287 46.5466 0 46.5466 9.04572 0 0 0 93.5607 
425.03 33.4576 0 33.4576 5.45915 0 0 0 92.4411 
425.684 24.3857 0 24.3857 3.45165 0 0 0 92.0488 
427.844 17.8388 0 17.8388 2.25003 0 0 0 92.0396 
430.705 13.017 0 13.017 1.49631 0 0 0 92.2286 
433.793 9.43548 0 9.43548 1.0063 0 0 0 92.511 
436.829 6.77275 0 6.77275 0.678482 0 0 0 92.8259 
439.652 4.80121 0 4.80121 0.454076 0 0 0 93.1384 
442.179 3.35278 0 3.35278 0.297715 0 0 0 93.429 
444.373 2.30016 0 2.30016 0.187401 0 0 0 93.6878 
446.231 1.5456 0 1.5456 0.109025 0 0 0 93.9105 
447.762 1.01358 0 1.01358 0.0532786 0 0 0 94.0966 
448.989 0.64558 0 0.64558 0.0138757 0 0 0 94.247 
449.935 0.396112 0 0.396112 -0.0134949 0 0 0 94.3637 
450.622 0.229511 0 0.229511 -0.0317895 0 0 0 94.449 
451.069 0.117276 0 0.117276 -0.042983 0 0 0 94.5046 
451.289 0.0357794 0 0.0357794 -0.0482901 0 0 0 94.5321 
412.987 137.379 0 137.379 128.14 0 0 0 125.516 
439.693 108.452 0 108.452 62.8804 0 0 0 110.576 
440.959 74.632 0 74.632 33.1842 0 0 0 103.048 
438.101 51.2954 0 51.2954 19.3618 0 0 0 98.9565 
436.138 35.6515 0 35.6515 12.1719 0 0 0 96.6325 
435.655 24.9137 0 24.9137 8.04238 0 0 0 95.2994 
436.319 17.3804 0 17.3804 5.48512 0 0 0 94.5531 
437.709 12.0272 0 12.0272 3.81078 0 0 0 94.1635 
439.482 8.2064 0 8.2064 2.66906 0 0 0 93.9919 
441.394 5.48587 0 5.48587 1.8679 0 0 0 93.9516 
443.282 3.56466 0 3.56466 1.29496 0 0 0 93.9872 
445.043 2.22666 0 2.22666 0.880644 0 0 0 94.0632 
446.62 1.31379 0 1.31379 0.579614 0 0 0 94.1567 
447.986 0.709208 0 0.709208 0.361032 0 0 0 94.2534 
449.133 0.326262 0 0.326262 0.203229 0 0 0 94.3442 
450.064 0.100667 0 0.100667 0.0906524 0 0 0 94.424 
450.79 -0.0152677 0 -0.0152677 0.0120657 0 0 0 94.4896 
451.321 -0.0570688 0 -0.0570688 -0.0405677 0 0 0 94.5396 
451.668 -0.0516088 0 -0.0516088 -0.072782 0 0 0 94.5732 
451.84 -0.01999 0 -0.01999 -0.0880513 0 0 0 94.59 
392.478 106.416 0 106.416 128.358 0 0 0 126.566 
420.281 94.2015 0 94.2015 81.4236 0 0 0 116.207 
434.28 72.2751 0 72.2751 49.5789 0 0 0 108.65 
439.24 52.1507 0 52.1507 30.9695 0 0 0 103.67 
440.833 36.6855 0 36.6855 20.1018 0 0 0 100.429 
441.581 25.4092 0 25.4092 13.4817 0 0 0 98.3085 
442.336 17.3257 0 17.3257 9.24889 0 0 0 96.9166 
443.293 11.5786 0 11.5786 6.42589 0 0 0 96.0058 
444.423 7.52637 0 7.52637 4.48104 0 0 0 95.4173 
445.639 4.70206 0 4.70206 3.11035 0 0 0 95.0457 
446.856 2.76595 0 2.76595 2.13045 0 0 0 94.8202 
448.011 1.46981 0 1.46981 1.42484 0 0 0 94.6917 
449.059 0.631775 0 0.631775 0.915941 0 0 0 94.6264 
449.978 0.118664 0 0.118664 0.550052 0 0 0 94.6009 
450.758 -0.166694 0 -0.166694 0.288978 0 0 0 94.599 
451.396 -0.294783 0 -0.294783 0.105108 0 0 0 94.6094 
451.895 -0.316423 0 -0.316423 -0.021575 0 0 0 94.6247 
452.263 -0.268162 0 -0.268162 -0.105382 0 0 0 94.6397 
452.504 -0.176503 0 -0.176503 -0.156155 0 0 0 94.6513 
452.623 -0.0613128 0 -0.0613128 -0.180057 0 0 0 94.6575 
383.986 84.3727 0 84.3727 125.94 0 0 0 126.84 
408.194 78.2004 0 78.2004 90.2255 0 0 0 119.143 
425.611 64.4003 0 64.4003 61.357 0 0 0 112.482 
435.75 49.0394 0 49.0394 41.2523 0 0 0 107.378 
441.179 35.5813 0 35.5813 27.9579 0 0 0 103.649 
444.157 24.9553 0 24.9553 19.185 0 0 0 100.972 
445.984 16.9865 0 16.9865 13.2941 0 0 0 99.0634 
447.29 11.1902 0 11.1902 9.25185 0 0 0 97.708 
448.351 7.07075 0 7.07075 6.42511 0 0 0 96.7505 
449.277 4.20756 0 4.20756 4.42121 0 0 0 96.0793 
450.102 2.26792 0 2.26792 2.98924 0 0 0 95.6137 
450.835 0.997043 0 0.997043 1.96305 0 0 0 95.2953 
451.474 0.203574 0 0.203574 1.22881 0 0 0 95.0812 
452.022 -0.254054 0 -0.254054 0.70631 0 0 0 94.9406 
452.478 -0.479194 0 -0.479194 0.337911 0 0 0 94.8506 
452.847 -0.546324 0 -0.546324 0.0817968 0 0 0 94.795 
453.134 -0.508457 0 -0.508457 -0.0923364 0 0 0 94.762 
453.344 -0.402993 0 -0.402993 -0.2061 0 0 0 94.7434 
453.481 -0.256358 0 -0.256358 -0.274299 0 0 0 94.7339 
453.549 -0.0877469 0 -0.0877469 -0.306179 0 0 0 94.7299 
379.917 66.9793 0 66.9793 123.886 0 0 0 127.068 
400.964 63.4227 0 63.4227 94.7288 0 0 0 120.862 
418.552 54.5139 0 54.5139 69.1893 0 0 0 115.049 
431.143 43.3321 0 43.3321 49.3245 0 0 0 110.139 
439.363 32.4858 0 32.4858 34.838 0 0 0 106.228 
444.529 23.2634 0 23.2634 24.542 0 0 0 103.212 
447.775 15.993 0 15.993 17.2602 0 0 0 100.928 
449.86 10.5347 0 10.5347 12.0907 0 0 0 99.2188 
451.243 6.58364 0 6.58364 8.40047 0 0 0 97.9521 
452.193 3.81432 0 3.81432 5.75569 0 0 0 97.0213 
452.865 1.93762 0 1.93762 3.8581 0 0 0 96.3434 
453.35 0.717066 0 0.717066 2.49938 0 0 0 95.8545 
453.706 -0.0318668 0 -0.0318668 1.53144 0 0 0 95.5057 
453.967 -0.448683 0 -0.448683 0.847368 0 0 0 95.2599 
454.159 -0.636338 0 -0.636338 0.369273 0 0 0 95.0891 
454.299 -0.669265 0 -0.669265 0.0402249 0 0 0 94.9725 
454.398 -0.600315 0 -0.600315 -0.18112 0 0 0 94.8949 
454.466 -0.466482 0 -0.466482 -0.324231 0 0 0 94.8452 
454.508 -0.293572 0 -0.293572 -0.409261 0 0 0 94.8159 
454.528 -0.100002 0 -0.100002 -0.448765 0 0 0 94.8024 
377.803 52.2974 0 52.2974 122.386 0 0 0 127.287 
396.536 50.0774 0 50.0774 97.2623 0 0 0 121.969 
413.417 44.1851 0 44.1851 74.3702 0 0 0 116.793 
426.939 36.2259 0 36.2259 55.3185 0 0 0 112.147 
436.865 27.9248 0 27.9248 40.4152 0 0 0 108.214 
443.745 20.4288 0 20.4288 29.1697 0 0 0 105.012 
448.34 14.2452 0 14.2452 20.842 0 0 0 102.474 
451.33 9.45092 0 9.45092 14.7324 0 0 0 100.501 
453.229 5.90483 0 5.90483 10.2743 0 0 0 98.9883 
454.399 3.38598 0 3.38598 7.0359 0 0 0 97.8433 
455.088 1.66738 0 1.66738 4.69585 0 0 0 96.986 
455.466 0.548534 0 0.548534 3.01627 0 0 0 96.3506 
455.646 -0.134235 0 -0.134235 1.82097 0 0 0 95.8847 
455.705 -0.508057 0 -0.508057 0.979235 0 0 0 95.5468 
455.695 -0.66826 0 -0.66826 0.394153 0 0 0 95.3048 
455.65 -0.68435 0 -0.68435 -0.00578671 0 0 0 95.1343 
455.593 -0.605837 0 -0.605837 -0.272772 0 0 0 95.017 
455.54 -0.467351 0 -0.467351 -0.444066 0 0 0 94.9395 
455.5 -0.29293 0 -0.29293 -0.545152 0 0 0 94.8927 
455.479 -0.0996007 0 -0.0996007 -0.591893 0 0 0 94.8706 
376.656 39.3108 0 39.3108 121.333 0 0 0 127.478 
393.77 37.8808 0 37.8808 98.7838 0 0 0 122.716 
409.844 33.9739 0 33.9739 77.808 0 0 0 117.985 
423.599 28.4557 0 28.4557 59.6128 0 0 0 113.579 
434.475 22.4089 0 22.4089 44.6789 0 0 0 109.689 
442.544 16.6966 0 16.6966 32.8944 0 0 0 106.396 
448.231 11.8072 0 11.8072 23.8391 0 0 0 103.695 
452.055 7.90817 0 7.90817 17.0066 0 0 0 101.533 
454.503 4.96474 0 4.96474 11.9204 0 0 0 99.8351 
455.976 2.84431 0 2.84431 8.17651 0 0 0 98.5228 
456.78 1.38441 0 1.38441 5.44943 0 0 0 97.5218 
457.145 0.42934 0 0.42934 3.48418 0 0 0 96.7672 
457.233 -0.153978 0 -0.153978 2.08413 0 0 0 96.2048 
457.159 -0.471848 0 -0.471848 1.09941 0 0 0 95.7904 
457.003 -0.605352 0 -0.605352 0.416947 0 0 0 95.4889 
456.819 -0.614223 0 -0.614223 -0.0476139 0 0 0 95.2731 
456.64 -0.541258 0 -0.541258 -0.356193 0 0 0 95.1224 
456.491 -0.416461 0 -0.416461 -0.553137 0 0 0 95.0215 
456.385 -0.260659 0 -0.260659 -0.66881 0 0 0 94.9599 