# vtk DataFile Version 2.0
Generated by inSilico's base::io::vtk::LegacyWriter
ASCII
DATASET UNSTRUCTURED_GRID
POINTS 441 float
0 0 0 
0.05 0 0 
0.1 0 0 
0.15 0 0 
0.2 0 0 
0.25 0 0 
0.3 0 0 
0.35 0 0 
0.4 0 0 
0.45 0 0 
0.5 0 0 
0.55 0 0 
0.6 0 0 
0.65 0 0 
0.7 0 0 
0.75 0 0 
0.8 0 0 
0.85 0 0 
0.9 0 0 
0.95 0 0 
1 0 0 
0 0.05 0 
0.05 0.05 0 
0.1 0.05 0 
0.15 0.05 0 
0.2 0.05 0 
0.25 0.05 0 
0.3 0.05 0 
0.35 0.05 0 
0.4 0.05 0 
0.45 0.05 0 
0.5 0.05 0 
0.55 0.05 0 
0.6 0.05 0 
0.65 0.05 0 
0.7 0.05 0 
0.75 0.05 0 
0.8 0.05 0 
0.85 0.05 0 
0.9 0.05 0 
0.95 0.05 0 
1 0.05 0 
0 0.1 0 
0.05 0.1 0 
0.1 0.1 0 
0.15 0.1 0 
0.2 0.1 0 
0.25 0.1 0 
0.3 0.1 0 
0.35 0.1 0 
0.4 0.1 0 
0.45 0.1 0 
0.5 0.1 0 
0.55 0.1 0 
0.6 0.1 0 
0.65 0.1 0 
0.7 0.1 0 
0.75 0.1 0 
0.8 0.1 0 
0.85 0.1 0 
0.9 0.1 0 
0.95 0.1 0 
1 0.1 0 
0 0.15 0 
0.05 0.15 0 
0.1 0.15 0 
0.15 0.15 0 
0.2 0.15 0 
0.25 0.15 0 
0.3 0.15 0 
0.35 0.15 0 
0.4 0.15 0 
0.45 0.15 0 
0.5 0.15 0 
0.55 0.15 0 
0.6 0.15 0 
0.65 0.15 0 
0.7 0.15 0 
0.75 0.15 0 
0.8 0.15 0 
0.85 0.15 0 
0.9 0.15 0 
0.95 0.15 0 
1 0.15 0 
0 0.2 0 
0.05 0.2 0 
0.1 0.2 0 
0.15 0.2 0 
0.2 0.2 0 
0.25 0.2 0 
0.3 0.2 0 
0.35 0.2 0 
0.4 0.2 0 
0.45 0.2 0 
0.5 0.2 0 
0.55 0.2 0 
0.6 0.2 0 
0.65 0.2 0 
0.7 0.2 0 
0.75 0.2 0 
0.8 0.2 0 
0.85 0.2 0 
0.9 0.2 0 
0.95 0.2 0 
1 0.2 0 
0 0.25 0 
0.05 0.25 0 
0.1 0.25 0 
0.15 0.25 0 
0.2 0.25 0 
0.25 0.25 0 
0.3 0.25 0 
0.35 0.25 0 
0.4 0.25 0 
0.45 0.25 0 
0.5 0.25 0 
0.55 0.25 0 
0.6 0.25 0 
0.65 0.25 0 
0.7 0.25 0 
0.75 0.25 0 
0.8 0.25 0 
0.85 0.25 0 
0.9 0.25 0 
0.95 0.25 0 
1 0.25 0 
0 0.3 0 
0.05 0.3 0 
0.1 0.3 0 
0.15 0.3 0 
0.2 0.3 0 
0.25 0.3 0 
0.3 0.3 0 
0.35 0.3 0 
0.4 0.3 0 
0.45 0.3 0 
0.5 0.3 0 
0.55 0.3 0 
0.6 0.3 0 
0.65 0.3 0 
0.7 0.3 0 
0.75 0.3 0 
0.8 0.3 0 
0.85 0.3 0 
0.9 0.3 0 
0.95 0.3 0 
1 0.3 0 
0 0.35 0 
0.05 0.35 0 
0.1 0.35 0 
0.15 0.35 0 
0.2 0.35 0 
0.25 0.35 0 
0.3 0.35 0 
0.35 0.35 0 
0.4 0.35 0 
0.45 0.35 0 
0.5 0.35 0 
0.55 0.35 0 
0.6 0.35 0 
0.65 0.35 0 
0.7 0.35 0 
0.75 0.35 0 
0.8 0.35 0 
0.85 0.35 0 
0.9 0.35 0 
0.95 0.35 0 
1 0.35 0 
0 0.4 0 
0.05 0.4 0 
0.1 0.4 0 
0.15 0.4 0 
0.2 0.4 0 
0.25 0.4 0 
0.3 0.4 0 
0.35 0.4 0 
0.4 0.4 0 
0.45 0.4 0 
0.5 0.4 0 
0.55 0.4 0 
0.6 0.4 0 
0.65 0.4 0 
0.7 0.4 0 
0.75 0.4 0 
0.8 0.4 0 
0.85 0.4 0 
0.9 0.4 0 
0.95 0.4 0 
1 0.4 0 
0 0.45 0 
0.05 0.45 0 
0.1 0.45 0 
0.15 0.45 0 
0.2 0.45 0 
0.25 0.45 0 
0.3 0.45 0 
0.35 0.45 0 
0.4 0.45 0 
0.45 0.45 0 
0.5 0.45 0 
0.55 0.45 0 
0.6 0.45 0 
0.65 0.45 0 
0.7 0.45 0 
0.75 0.45 0 
0.8 0.45 0 
0.85 0.45 0 
0.9 0.45 0 
0.95 0.45 0 
1 0.45 0 
0 0.5 0 
0.05 0.5 0 
0.1 0.5 0 
0.15 0.5 0 
0.2 0.5 0 
0.25 0.5 0 
0.3 0.5 0 
0.35 0.5 0 
0.4 0.5 0 
0.45 0.5 0 
0.5 0.5 0 
0.55 0.5 0 
0.6 0.5 0 
0.65 0.5 0 
0.7 0.5 0 
0.75 0.5 0 
0.8 0.5 0 
0.85 0.5 0 
0.9 0.5 0 
0.95 0.5 0 
1 0.5 0 
0 0.55 0 
0.05 0.55 0 
0.1 0.55 0 
0.15 0.55 0 
0.2 0.55 0 
0.25 0.55 0 
0.3 0.55 0 
0.35 0.55 0 
0.4 0.55 0 
0.45 0.55 0 
0.5 0.55 0 
0.55 0.55 0 
0.6 0.55 0 
0.65 0.55 0 
0.7 0.55 0 
0.75 0.55 0 
0.8 0.55 0 
0.85 0.55 0 
0.9 0.55 0 
0.95 0.55 0 
1 0.55 0 
0 0.6 0 
0.05 0.6 0 
0.1 0.6 0 
0.15 0.6 0 
0.2 0.6 0 
0.25 0.6 0 
0.3 0.6 0 
0.35 0.6 0 
0.4 0.6 0 
0.45 0.6 0 
0.5 0.6 0 
0.55 0.6 0 
0.6 0.6 0 
0.65 0.6 0 
0.7 0.6 0 
0.75 0.6 0 
0.8 0.6 0 
0.85 0.6 0 
0.9 0.6 0 
0.95 0.6 0 
1 0.6 0 
0 0.65 0 
0.05 0.65 0 
0.1 0.65 0 
0.15 0.65 0 
0.2 0.65 0 
0.25 0.65 0 
0.3 0.65 0 
0.35 0.65 0 
0.4 0.65 0 
0.45 0.65 0 
0.5 0.65 0 
0.55 0.65 0 
0.6 0.65 0 
0.65 0.65 0 
0.7 0.65 0 
0.75 0.65 0 
0.8 0.65 0 
0.85 0.65 0 
0.9 0.65 0 
0.95 0.65 0 
1 0.65 0 
0 0.7 0 
0.05 0.7 0 
0.1 0.7 0 
0.15 0.7 0 
0.2 0.7 0 
0.25 0.7 0 
0.3 0.7 0 
0.35 0.7 0 
0.4 0.7 0 
0.45 0.7 0 
0.5 0.7 0 
0.55 0.7 0 
0.6 0.7 0 
0.65 0.7 0 
0.7 0.7 0 
0.75 0.7 0 
0.8 0.7 0 
0.85 0.7 0 
0.9 0.7 0 
0.95 0.7 0 
1 0.7 0 
0 0.75 0 
0.05 0.75 0 
0.1 0.75 0 
0.15 0.75 0 
0.2 0.75 0 
0.25 0.75 0 
0.3 0.75 0 
0.35 0.75 0 
0.4 0.75 0 
0.45 0.75 0 
0.5 0.75 0 
0.55 0.75 0 
0.6 0.75 0 
0.65 0.75 0 
0.7 0.75 0 
0.75 0.75 0 
0.8 0.75 0 
0.85 0.75 0 
0.9 0.75 0 
0.95 0.75 0 
1 0.75 0 
0 0.8 0 
0.05 0.8 0 
0.1 0.8 0 
0.15 0.8 0 
0.2 0.8 0 
0.25 0.8 0 
0.3 0.8 0 
0.35 0.8 0 
0.4 0.8 0 
0.45 0.8 0 
0.5 0.8 0 
0.55 0.8 0 
0.6 0.8 0 
0.65 0.8 0 
0.7 0.8 0 
0.75 0.8 0 
0.8 0.8 0 
0.85 0.8 0 
0.9 0.8 0 
0.95 0.8 0 
1 0.8 0 
0 0.85 0 
0.05 0.85 0 
0.1 0.85 0 
0.15 0.85 0 
0.2 0.85 0 
0.25 0.85 0 
0.3 0.85 0 
0.35 0.85 0 
0.4 0.85 0 
0.45 0.85 0 
0.5 0.85 0 
0.55 0.85 0 
0.6 0.85 0 
0.65 0.85 0 
0.7 0.85 0 
0.75 0.85 0 
0.8 0.85 0 
0.85 0.85 0 
0.9 0.85 0 
0.95 0.85 0 
1 0.85 0 
0 0.9 0 
0.05 0.9 0 
0.1 0.9 0 
0.15 0.9 0 
0.2 0.9 0 
0.25 0.9 0 
0.3 0.9 0 
0.35 0.9 0 
0.4 0.9 0 
0.45 0.9 0 
0.5 0.9 0 
0.55 0.9 0 
0.6 0.9 0 
0.65 0.9 0 
0.7 0.9 0 
0.75 0.9 0 
0.8 0.9 0 
0.85 0.9 0 
0.9 0.9 0 
0.95 0.9 0 
1 0.9 0 
0 0.95 0 
0.05 0.95 0 
0.1 0.95 0 
0.15 0.95 0 
0.2 0.95 0 
0.25 0.95 0 
0.3 0.95 0 
0.35 0.95 0 
0.4 0.95 0 
0.45 0.95 0 
0.5 0.95 0 
0.55 0.95 0 
0.6 0.95 0 
0.65 0.95 0 
0.7 0.95 0 
0.75 0.95 0 
0.8 0.95 0 
0.85 0.95 0 
0.9 0.95 0 
0.95 0.95 0 
1 0.95 0 
0 1 0 
0.05 1 0 
0.1 1 0 
0.15 1 0 
0.2 1 0 
0.25 1 0 
0.3 1 0 
0.35 1 0 
0.4 1 0 
0.45 1 0 
0.5 1 0 
0.55 1 0 
0.6 1 0 
0.65 1 0 
0.7 1 0 
0.75 1 0 
0.8 1 0 
0.85 1 0 
0.9 1 0 
0.95 1 0 
1 1 0 
CELLS 400 2000
4 0 1 22 21 
4 1 2 23 22 
4 2 3 24 23 
4 3 4 25 24 
4 4 5 26 25 
4 5 6 27 26 
4 6 7 28 27 
4 7 8 29 28 
4 8 9 30 29 
4 9 10 31 30 
4 10 11 32 31 
4 11 12 33 32 
4 12 13 34 33 
4 13 14 35 34 
4 14 15 36 35 
4 15 16 37 36 
4 16 17 38 37 
4 17 18 39 38 
4 18 19 40 39 
4 19 20 41 40 
4 21 22 43 42 
4 22 23 44 43 
4 23 24 45 44 
4 24 25 46 45 
4 25 26 47 46 
4 26 27 48 47 
4 27 28 49 48 
4 28 29 50 49 
4 29 30 51 50 
4 30 31 52 51 
4 31 32 53 52 
4 32 33 54 53 
4 33 34 55 54 
4 34 35 56 55 
4 35 36 57 56 
4 36 37 58 57 
4 37 38 59 58 
4 38 39 60 59 
4 39 40 61 60 
4 40 41 62 61 
4 42 43 64 63 
4 43 44 65 64 
4 44 45 66 65 
4 45 46 67 66 
4 46 47 68 67 
4 47 48 69 68 
4 48 49 70 69 
4 49 50 71 70 
4 50 51 72 71 
4 51 52 73 72 
4 52 53 74 73 
4 53 54 75 74 
4 54 55 76 75 
4 55 56 77 76 
4 56 57 78 77 
4 57 58 79 78 
4 58 59 80 79 
4 59 60 81 80 
4 60 61 82 81 
4 61 62 83 82 
4 63 64 85 84 
4 64 65 86 85 
4 65 66 87 86 
4 66 67 88 87 
4 67 68 89 88 
4 68 69 90 89 
4 69 70 91 90 
4 70 71 92 91 
4 71 72 93 92 
4 72 73 94 93 
4 73 74 95 94 
4 74 75 96 95 
4 75 76 97 96 
4 76 77 98 97 
4 77 78 99 98 
4 78 79 100 99 
4 79 80 101 100 
4 80 81 102 101 
4 81 82 103 102 
4 82 83 104 103 
4 84 85 106 105 
4 85 86 107 106 
4 86 87 108 107 
4 87 88 109 108 
4 88 89 110 109 
4 89 90 111 110 
4 90 91 112 111 
4 91 92 113 112 
4 92 93 114 113 
4 93 94 115 114 
4 94 95 116 115 
4 95 96 117 116 
4 96 97 118 117 
4 97 98 119 118 
4 98 99 120 119 
4 99 100 121 120 
4 100 101 122 121 
4 101 102 123 122 
4 102 103 124 123 
4 103 104 125 124 
4 105 106 127 126 
4 106 107 128 127 
4 107 108 129 128 
4 108 109 130 129 
4 109 110 131 130 
4 110 111 132 131 
4 111 112 133 132 
4 112 113 134 133 
4 113 114 135 134 
4 114 115 136 135 
4 115 116 137 136 
4 116 117 138 137 
4 117 118 139 138 
4 118 119 140 139 
4 119 120 141 140 
4 120 121 142 141 
4 121 122 143 142 
4 122 123 144 143 
4 123 124 145 144 
4 124 125 146 145 
4 126 127 148 147 
4 127 128 149 148 
4 128 129 150 149 
4 129 130 151 150 
4 130 131 152 151 
4 131 132 153 152 
4 132 133 154 153 
4 133 134 155 154 
4 134 135 156 155 
4 135 136 157 156 
4 136 137 158 157 
4 137 138 159 158 
4 138 139 160 159 
4 139 140 161 160 
4 140 141 162 161 
4 141 142 163 162 
4 142 143 164 163 
4 143 144 165 164 
4 144 145 166 165 
4 145 146 167 166 
4 147 148 169 168 
4 148 149 170 169 
4 149 150 171 170 
4 150 151 172 171 
4 151 152 173 172 
4 152 153 174 173 
4 153 154 175 174 
4 154 155 176 175 
4 155 156 177 176 
4 156 157 178 177 
4 157 158 179 178 
4 158 159 180 179 
4 159 160 181 180 
4 160 161 182 181 
4 161 162 183 182 
4 162 163 184 183 
4 163 164 185 184 
4 164 165 186 185 
4 165 166 187 186 
4 166 167 188 187 
4 168 169 190 189 
4 169 170 191 190 
4 170 171 192 191 
4 171 172 193 192 
4 172 173 194 193 
4 173 174 195 194 
4 174 175 196 195 
4 175 176 197 196 
4 176 177 198 197 
4 177 178 199 198 
4 178 179 200 199 
4 179 180 201 200 
4 180 181 202 201 
4 181 182 203 202 
4 182 183 204 203 
4 183 184 205 204 
4 184 185 206 205 
4 185 186 207 206 
4 186 187 208 207 
4 187 188 209 208 
4 189 190 211 210 
4 190 191 212 211 
4 191 192 213 212 
4 192 193 214 213 
4 193 194 215 214 
4 194 195 216 215 
4 195 196 217 216 
4 196 197 218 217 
4 197 198 219 218 
4 198 199 220 219 
4 199 200 221 220 
4 200 201 222 221 
4 201 202 223 222 
4 202 203 224 223 
4 203 204 225 224 
4 204 205 226 225 
4 205 206 227 226 
4 206 207 228 227 
4 207 208 229 228 
4 208 209 230 229 
4 210 211 232 231 
4 211 212 233 232 
4 212 213 234 233 
4 213 214 235 234 
4 214 215 236 235 
4 215 216 237 236 
4 216 217 238 237 
4 217 218 239 238 
4 218 219 240 239 
4 219 220 241 240 
4 220 221 242 241 
4 221 222 243 242 
4 222 223 244 243 
4 223 224 245 244 
4 224 225 246 245 
4 225 226 247 246 
4 226 227 248 247 
4 227 228 249 248 
4 228 229 250 249 
4 229 230 251 250 
4 231 232 253 252 
4 232 233 254 253 
4 233 234 255 254 
4 234 235 256 255 
4 235 236 257 256 
4 236 237 258 257 
4 237 238 259 258 
4 238 239 260 259 
4 239 240 261 260 
4 240 241 262 261 
4 241 242 263 262 
4 242 243 264 263 
4 243 244 265 264 
4 244 245 266 265 
4 245 246 267 266 
4 246 247 268 267 
4 247 248 269 268 
4 248 249 270 269 
4 249 250 271 270 
4 250 251 272 271 
4 252 253 274 273 
4 253 254 275 274 
4 254 255 276 275 
4 255 256 277 276 
4 256 257 278 277 
4 257 258 279 278 
4 258 259 280 279 
4 259 260 281 280 
4 260 261 282 281 
4 261 262 283 282 
4 262 263 284 283 
4 263 264 285 284 
4 264 265 286 285 
4 265 266 287 286 
4 266 267 288 287 
4 267 268 289 288 
4 268 269 290 289 
4 269 270 291 290 
4 270 271 292 291 
4 271 272 293 292 
4 273 274 295 294 
4 274 275 296 295 
4 275 276 297 296 
4 276 277 298 297 
4 277 278 299 298 
4 278 279 300 299 
4 279 280 301 300 
4 280 281 302 301 
4 281 282 303 302 
4 282 283 304 303 
4 283 284 305 304 
4 284 285 306 305 
4 285 286 307 306 
4 286 287 308 307 
4 287 288 309 308 
4 288 289 310 309 
4 289 290 311 310 
4 290 291 312 311 
4 291 292 313 312 
4 292 293 314 313 
4 294 295 316 315 
4 295 296 317 316 
4 296 297 318 317 
4 297 298 319 318 
4 298 299 320 319 
4 299 300 321 320 
4 300 301 322 321 
4 301 302 323 322 
4 302 303 324 323 
4 303 304 325 324 
4 304 305 326 325 
4 305 306 327 326 
4 306 307 328 327 
4 307 308 329 328 
4 308 309 330 329 
4 309 310 331 330 
4 310 311 332 331 
4 311 312 333 332 
4 312 313 334 333 
4 313 314 335 334 
4 315 316 337 336 
4 316 317 338 337 
4 317 318 339 338 
4 318 319 340 339 
4 319 320 341 340 
4 320 321 342 341 
4 321 322 343 342 
4 322 323 344 343 
4 323 324 345 344 
4 324 325 346 345 
4 325 326 347 346 
4 326 327 348 347 
4 327 328 349 348 
4 328 329 350 349 
4 329 330 351 350 
4 330 331 352 351 
4 331 332 353 352 
4 332 333 354 353 
4 333 334 355 354 
4 334 335 356 355 
4 336 337 358 357 
4 337 338 359 358 
4 338 339 360 359 
4 339 340 361 360 
4 340 341 362 361 
4 341 342 363 362 
4 342 343 364 363 
4 343 344 365 364 
4 344 345 366 365 
4 345 346 367 366 
4 346 347 368 367 
4 347 348 369 368 
4 348 349 370 369 
4 349 350 371 370 
4 350 351 372 371 
4 351 352 373 372 
4 352 353 374 373 
4 353 354 375 374 
4 354 355 376 375 
4 355 356 377 376 
4 357 358 379 378 
4 358 359 380 379 
4 359 360 381 380 
4 360 361 382 381 
4 361 362 383 382 
4 362 363 384 383 
4 363 364 385 384 
4 364 365 386 385 
4 365 366 387 386 
4 366 367 388 387 
4 367 368 389 388 
4 368 369 390 389 
4 369 370 391 390 
4 370 371 392 391 
4 371 372 393 392 
4 372 373 394 393 
4 373 374 395 394 
4 374 375 396 395 
4 375 376 397 396 
4 376 377 398 397 
4 378 379 400 399 
4 379 380 401 400 
4 380 381 402 401 
4 381 382 403 402 
4 382 383 404 403 
4 383 384 405 404 
4 384 385 406 405 
4 385 386 407 406 
4 386 387 408 407 
4 387 388 409 408 
4 388 389 410 409 
4 389 390 411 410 
4 390 391 412 411 
4 391 392 413 412 
4 392 393 414 413 
4 393 394 415 414 
4 394 395 416 415 
4 395 396 417 416 
4 396 397 418 417 
4 397 398 419 418 
4 399 400 421 420 
4 400 401 422 421 
4 401 402 423 422 
4 402 403 424 423 
4 403 404 425 424 
4 404 405 426 425 
4 405 406 427 426 
4 406 407 428 427 
4 407 408 429 428 
4 408 409 430 429 
4 409 410 431 430 
4 410 411 432 431 
4 411 412 433 432 
4 412 413 434 433 
4 413 414 435 434 
4 414 415 436 435 
4 415 416 437 436 
4 416 417 438 437 
4 417 418 439 438 
4 418 419 440 439 
CELL_TYPES 400
9
9
9
9
9
9
9
9
9
9
9
9
9
9
9
9
9
9
9
9
9
9
9
9
9
9
9
9
9
9
9
9
9
9
9
9
9
9
9
9
9
9
9
9
9
9
9
9
9
9
9
9
9
9
9
9
9
9
9
9
9
9
9
9
9
9
9
9
9
9
9
9
9
9
9
9
9
9
9
9
9
9
9
9
9
9
9
9
9
9
9
9
9
9
9
9
9
9
9
9
9
9
9
9
9
9
9
9
9
9
9
9
9
9
9
9
9
9
9
9
9
9
9
9
9
9
9
9
9
9
9
9
9
9
9
9
9
9
9
9
9
9
9
9
9
9
9
9
9
9
9
9
9
9
9
9
9
9
9
9
9
9
9
9
9
9
9
9
9
9
9
9
9
9
9
9
9
9
9
9
9
9
9
9
9
9
9
9
9
9
9
9
9
9
9
9
9
9
9
9
9
9
9
9
9
9
9
9
9
9
9
9
9
9
9
9
9
9
9
9
9
9
9
9
9
9
9
9
9
9
9
9
9
9
9
9
9
9
9
9
9
9
9
9
9
9
9
9
9
9
9
9
9
9
9
9
9
9
9
9
9
9
9
9
9
9
9
9
9
9
9
9
9
9
9
9
9
9
9
9
9
9
9
9
9
9
9
9
9
9
9
9
9
9
9
9
9
9
9
9
9
9
9
9
9
9
9
9
9
9
9
9
9
9
9
9
9
9
9
9
9
9
9
9
9
9
9
9
9
9
9
9
9
9
9
9
9
9
9
9
9
9
9
9
9
9
9
9
9
9
9
9
9
9
9
9
9
9
9
9
9
9
9
9
9
9
9
9
9
9
9
9
9
9
9
9
9
9
9
9
9
9
9
9
9
9
9
9
9
9
9
9
9
9
9
9
9
9
9
9
POINT_DATA 441
VECTORS disp float 
0 0 0 
0.0299939 0.0299224 0 
0.0548261 0.0466744 0 
0.0785574 0.0581204 0 
0.102043 0.0664222 0 
0.125582 0.0725754 0 
0.149302 0.0771706 0 
0.173253 0.0806056 0 
0.197449 0.0831663 0 
0.221883 0.0850657 0 
0.246537 0.0864654 0 
0.271388 0.0874888 0 
0.296409 0.0882305 0 
0.321575 0.0887627 0 
0.346862 0.0891402 0 
0.372248 0.0894043 0 
0.397711 0.0895855 0 
0.423234 0.0897062 0 
0.448799 0.0897822 0 
0.474393 0.0898239 0 
0.5 0.0898372 0 
0 0 0 
0.0235289 0.0217517 0 
0.0488554 0.0379612 0 
0.0737166 0.049522 0 
0.0982282 0.0579204 0 
0.122608 0.0641041 0 
0.146999 0.0686835 0 
0.17148 0.0720767 0 
0.196092 0.0745836 0 
0.22085 0.0764261 0 
0.245756 0.0777708 0 
0.270801 0.0787442 0 
0.295971 0.0794421 0 
0.321251 0.0799369 0 
0.346625 0.0802835 0 
0.372077 0.0805225 0 
0.39759 0.0806842 0 
0.423152 0.0807904 0 
0.448749 0.0808564 0 
0.474369 0.0808922 0 
0.5 0.0809035 0 
0 0 0 
0.0217389 0.0166791 0 
0.0456373 0.0308314 0 
0.0702934 0.0416815 0 
0.0950939 0.0497944 0 
0.119909 0.055826 0 
0.144745 0.0602976 0 
0.169634 0.0636003 0 
0.1946 0.0660269 0 
0.219657 0.0677977 0 
0.244811 0.0690793 0 
0.270059 0.0699982 0 
0.295394 0.07065 0 
0.320806 0.0711066 0 
0.346287 0.071422 0 
0.371823 0.0716363 0 
0.397406 0.071779 0 
0.423024 0.071871 0 
0.448669 0.0719273 0 
0.47433 0.0719574 0 
0.5 0.0719669 0 
0 0 0 
0.0210573 0.0131969 0 
0.0439939 0.025032 0 
0.068091 0.0346792 0 
0.0927522 0.0421645 0 
0.117675 0.0478362 0 
0.142736 0.0520763 0 
0.16789 0.0552146 0 
0.193123 0.0575163 0 
0.218429 0.0591887 0 
0.243804 0.0603915 0 
0.269244 0.061247 0 
0.294742 0.061848 0 
0.320292 0.0622643 0 
0.345887 0.0625481 0 
0.371519 0.062738 0 
0.39718 0.0628623 0 
0.422865 0.062941 0 
0.448568 0.0629883 0 
0.474281 0.0630132 0 
0.5 0.063021 0 
0 0 0 
0.0207478 0.0105303 0 
0.0431086 0.0202256 0 
0.066699 0.028458 0 
0.0910785 0.0350664 0 
0.115927 0.0401866 0 
0.141052 0.0440637 0 
0.16635 0.0469509 0 
0.191764 0.0490717 0 
0.217259 0.05061 0 
0.242818 0.051712 0 
0.268427 0.0524911 0 
0.294075 0.053034 0 
0.319756 0.0534065 0 
0.345464 0.0536574 0 
0.371191 0.053823 0 
0.396935 0.0539295 0 
0.422692 0.0539958 0 
0.448456 0.0540349 0 
0.474227 0.0540551 0 
0.5 0.0540614 0 
0 0 0 
0.0205935 0.00832682 0 
0.042604 0.0161017 0 
0.065811 0.0228786 0 
0.0899051 0.0284652 0 
0.114605 0.0328852 0 
0.139703 0.0362796 0 
0.165059 0.0388283 0 
0.190581 0.0407078 0 
0.216211 0.0420718 0 
0.241913 0.0430468 0 
0.267662 0.0437334 0 
0.293441 0.044209 0 
0.319239 0.0445327 0 
0.34505 0.0447486 0 
0.370869 0.0448893 0 
0.396692 0.0449785 0 
0.422518 0.045033 0 
0.448345 0.0450646 0 
0.474172 0.0450807 0 
0.5 0.0450856 0 
0 0 0 
0.0205127 0.00640869 0 
0.0423047 0.0124416 0 
0.0652382 0.0177897 0 
0.0890928 0.0222849 0 
0.113635 0.0259032 0 
0.138664 0.0287184 0 
0.164025 0.0308507 0 
0.189605 0.0324309 0 
0.215325 0.0335798 0 
0.241133 0.0344008 0 
0.266991 0.0349774 0 
0.292877 0.0353752 0 
0.318774 0.0356443 0 
0.344675 0.0358223 0 
0.370574 0.0359372 0 
0.396468 0.0360091 0 
0.422357 0.0360524 0 
0.448241 0.0360771 0 
0.474121 0.0360895 0 
0.5 0.0360933 0 
0 0 0 
0.0204697 0.0046741 0 
0.042124 0.00909617 0 
0.0648699 0.0130591 0 
0.0885425 0.0164354 0 
0.112948 0.0191887 0 
0.137901 0.0213539 0 
0.163242 0.0230067 0 
0.188847 0.0242375 0 
0.214624 0.0251347 0 
0.240505 0.025776 0 
0.266444 0.0262258 0 
0.292412 0.0265353 0 
0.318388 0.0267437 0 
0.344361 0.0268809 0 
0.370325 0.0269687 0 
0.396278 0.0270231 0 
0.42222 0.0270555 0 
0.448152 0.0270737 0 
0.474078 0.0270827 0 
0.5 0.0270854 0 
0 0 0 
0.020447 0.00305755 0 
0.0420172 0.00595898 0 
0.0646416 0.0085768 0 
0.0881887 0.0108269 0 
0.112492 0.0126785 0 
0.13738 0.0141459 0 
0.162696 0.0152727 0 
0.18831 0.0161152 0 
0.214118 0.0167307 0 
0.240047 0.017171 0 
0.266041 0.0174797 0 
0.292066 0.0176917 0 
0.318099 0.0178341 0 
0.344125 0.0179274 0 
0.370137 0.0179869 0 
0.396134 0.0180234 0 
0.422116 0.018045 0 
0.448085 0.018057 0 
0.474045 0.0180629 0 
0.5 0.0180647 0 
0 0 0 
0.0204361 0.00151203 0 
0.0419608 0.00294921 0 
0.0645169 0.00425072 0 
0.0879908 0.00537503 0 
0.112232 0.00630502 0 
0.137078 0.00704555 0 
0.162375 0.00761631 0 
0.187989 0.00804416 0 
0.213814 0.00835723 0 
0.239768 0.00858134 0 
0.265795 0.00873843 0 
0.291854 0.00884623 0 
0.31792 0.00891853 0 
0.343978 0.0089658 0 
0.370021 0.00899581 0 
0.396045 0.0090142 0 
0.422051 0.009025 0 
0.448043 0.00903096 0 
0.474024 0.00903387 0 
0.5 0.00903474 0 
0 0 0 
0.0204329 -5.16944e-18 0 
0.0419431 -1.35682e-17 0 
0.0644773 -1.58666e-17 0 
0.0879272 -2.93616e-17 0 
0.112148 -3.71881e-17 0 
0.136979 -3.85658e-17 0 
0.162269 -3.99003e-17 0 
0.187882 -3.75879e-17 0 
0.213712 -3.36238e-17 0 
0.239675 -4.48546e-17 0 
0.265712 -2.75862e-17 0 
0.291783 -7.01343e-18 0 
0.31786 -4.22161e-18 0 
0.343929 6.07153e-18 0 
0.369981 1.98816e-17 0 
0.396014 5.6592e-17 0 
0.422029 3.3656e-17 0 
0.448028 4.6879e-17 0 
0.474017 6.80405e-17 0 
0.5 1.01942e-16 0 
0 0 0 
0.0204361 -0.00151203 0 
0.0419608 -0.00294921 0 
0.0645169 -0.00425072 0 
0.0879908 -0.00537503 0 
0.112232 -0.00630502 0 
0.137078 -0.00704555 0 
0.162375 -0.00761631 0 
0.187989 -0.00804416 0 
0.213814 -0.00835723 0 
0.239768 -0.00858134 0 
0.265795 -0.00873843 0 
0.291854 -0.00884623 0 
0.31792 -0.00891853 0 
0.343978 -0.0089658 0 
0.370021 -0.00899581 0 
0.396045 -0.0090142 0 
0.422051 -0.009025 0 
0.448043 -0.00903096 0 
0.474024 -0.00903387 0 
0.5 -0.00903474 0 
0 0 0 
0.020447 -0.00305755 0 
0.0420172 -0.00595898 0 
0.0646416 -0.0085768 0 
0.0881887 -0.0108269 0 
0.112492 -0.0126785 0 
0.13738 -0.0141459 0 
0.162696 -0.0152727 0 
0.18831 -0.0161152 0 
0.214118 -0.0167307 0 
0.240047 -0.017171 0 
0.266041 -0.0174797 0 
0.292066 -0.0176917 0 
0.318099 -0.0178341 0 
0.344125 -0.0179274 0 
0.370137 -0.0179869 0 
0.396134 -0.0180234 0 
0.422116 -0.018045 0 
0.448085 -0.018057 0 
0.474045 -0.0180629 0 
0.5 -0.0180647 0 
0 0 0 
0.0204697 -0.0046741 0 
0.042124 -0.00909617 0 
0.0648699 -0.0130591 0 
0.0885425 -0.0164354 0 
0.112948 -0.0191887 0 
0.137901 -0.0213539 0 
0.163242 -0.0230067 0 
0.188847 -0.0242375 0 
0.214624 -0.0251347 0 
0.240505 -0.025776 0 
0.266444 -0.0262258 0 
0.292412 -0.0265353 0 
0.318388 -0.0267437 0 
0.344361 -0.0268809 0 
0.370325 -0.0269687 0 
0.396278 -0.0270231 0 
0.42222 -0.0270555 0 
0.448152 -0.0270737 0 
0.474078 -0.0270827 0 
0.5 -0.0270854 0 
0 0 0 
0.0205127 -0.00640869 0 
0.0423047 -0.0124416 0 
0.0652382 -0.0177897 0 
0.0890928 -0.0222849 0 
0.113635 -0.0259032 0 
0.138664 -0.0287184 0 
0.164025 -0.0308507 0 
0.189605 -0.0324309 0 
0.215325 -0.0335798 0 
0.241133 -0.0344008 0 
0.266991 -0.0349774 0 
0.292877 -0.0353752 0 
0.318774 -0.0356443 0 
0.344675 -0.0358223 0 
0.370574 -0.0359372 0 
0.396468 -0.0360091 0 
0.422357 -0.0360524 0 
0.448241 -0.0360771 0 
0.474121 -0.0360895 0 
0.5 -0.0360933 0 
0 0 0 
0.0205935 -0.00832682 0 
0.042604 -0.0161017 0 
0.065811 -0.0228786 0 
0.0899051 -0.0284652 0 
0.114605 -0.0328852 0 
0.139703 -0.0362796 0 
0.165059 -0.0388283 0 
0.190581 -0.0407078 0 
0.216211 -0.0420718 0 
0.241913 -0.0430468 0 
0.267662 -0.0437334 0 
0.293441 -0.044209 0 
0.319239 -0.0445327 0 
0.34505 -0.0447486 0 
0.370869 -0.0448893 0 
0.396692 -0.0449785 0 
0.422518 -0.045033 0 
0.448345 -0.0450646 0 
0.474172 -0.0450807 0 
0.5 -0.0450856 0 
0 0 0 
0.0207478 -0.0105303 0 
0.0431086 -0.0202256 0 
0.066699 -0.028458 0 
0.0910785 -0.0350664 0 
0.115927 -0.0401866 0 
0.141052 -0.0440637 0 
0.16635 -0.0469509 0 
0.191764 -0.0490717 0 
0.217259 -0.05061 0 
0.242818 -0.051712 0 
0.268427 -0.0524911 0 
0.294075 -0.053034 0 
0.319756 -0.0534065 0 
0.345464 -0.0536574 0 
0.371191 -0.053823 0 
0.396935 -0.0539295 0 
0.422692 -0.0539958 0 
0.448456 -0.0540349 0 
0.474227 -0.0540551 0 
0.5 -0.0540614 0 
0 0 0 
0.0210573 -0.0131969 0 
0.0439939 -0.025032 0 
0.068091 -0.0346792 0 
0.0927522 -0.0421645 0 
0.117675 -0.0478362 0 
0.142736 -0.0520763 0 
0.16789 -0.0552146 0 
0.193123 -0.0575163 0 
0.218429 -0.0591887 0 
0.243804 -0.0603915 0 
0.269244 -0.061247 0 
0.294742 -0.061848 0 
0.320292 -0.0622643 0 
0.345887 -0.0625481 0 
0.371519 -0.062738 0 
0.39718 -0.0628623 0 
0.422865 -0.062941 0 
0.448568 -0.0629883 0 
0.474281 -0.0630132 0 
0.5 -0.063021 0 
0 0 0 
0.0217389 -0.0166791 0 
0.0456373 -0.0308314 0 
0.0702934 -0.0416815 0 
0.0950939 -0.0497944 0 
0.119909 -0.055826 0 
0.144745 -0.0602976 0 
0.169634 -0.0636003 0 
0.1946 -0.0660269 0 
0.219657 -0.0677977 0 
0.244811 -0.0690793 0 
0.270059 -0.0699982 0 
0.295394 -0.07065 0 
0.320806 -0.0711066 0 
0.346287 -0.071422 0 
0.371823 -0.0716363 0 
0.397406 -0.071779 0 
0.423024 -0.071871 0 
0.448669 -0.0719273 0 
0.47433 -0.0719574 0 
0.5 -0.0719669 0 
0 0 0 
0.0235289 -0.0217517 0 
0.0488554 -0.0379612 0 
0.0737166 -0.049522 0 
0.0982282 -0.0579204 0 
0.122608 -0.0641041 0 
0.146999 -0.0686835 0 
0.17148 -0.0720767 0 
0.196092 -0.0745836 0 
0.22085 -0.0764261 0 
0.245756 -0.0777708 0 
0.270801 -0.0787442 0 
0.295971 -0.0794421 0 
0.321251 -0.0799369 0 
0.346625 -0.0802835 0 
0.372077 -0.0805225 0 
0.39759 -0.0806842 0 
0.423152 -0.0807904 0 
0.448749 -0.0808564 0 
0.474369 -0.0808922 0 
0.5 -0.0809035 0 
0 0 0 
0.0299939 -0.0299224 0 
0.0548261 -0.0466744 0 
0.0785574 -0.0581204 0 
0.102043 -0.0664222 0 
0.125582 -0.0725754 0 
0.149302 -0.0771706 0 
0.173253 -0.0806056 0 
0.197449 -0.0831663 0 
0.221883 -0.0850657 0 
0.246537 -0.0864654 0 
0.271388 -0.0874888 0 
0.296409 -0.0882305 0 
0.321575 -0.0887627 0 
0.346862 -0.0891402 0 
0.372248 -0.0894043 0 
0.397711 -0.0895855 0 
0.423234 -0.0897062 0 
0.448799 -0.0897822 0 
0.474393 -0.0898239 0 
0.5 -0.0898372 0 
CELL_DATA 400
TENSORS sigma float 
521.527 213.836 0 213.836 113.271 0 0 0 122.553 
496.061 118.339 0 118.339 38.9611 0 0 0 108.043 
478.96 76.9849 0 76.9849 18.7944 0 0 0 102.362 
471.657 53.777 0 53.777 10.4858 0 0 0 99.8173 
469.842 38.7645 0 38.7645 6.30447 0 0 0 98.6993 
470.937 28.3097 0 28.3097 3.96613 0 0 0 98.3038 
473.515 20.7438 0 20.7438 2.57175 0 0 0 98.2879 
476.756 15.1632 0 15.1632 1.70215 0 0 0 98.4678 
480.179 11.0151 0 11.0151 1.1408 0 0 0 98.7394 
483.5 7.92988 0 7.92988 0.768127 0 0 0 99.0428 
486.562 5.64446 0 5.64446 0.514975 0 0 0 99.3434 
489.283 3.96392 0 3.96392 0.339861 0 0 0 99.6225 
491.633 2.74042 0 2.74042 0.217117 0 0 0 99.8704 
493.612 1.86053 0 1.86053 0.130393 0 0 0 100.083 
495.237 1.23672 0 1.23672 0.0689908 0 0 0 100.261 
496.535 0.80133 0 0.80133 0.0257456 0 0 0 100.404 
497.532 0.501889 0 0.501889 -0.00421283 0 0 0 100.515 
498.254 0.297368 0 0.297368 -0.0241989 0 0 0 100.596 
498.723 0.155059 0 0.155059 -0.036412 0 0 0 100.648 
498.954 0.0478996 0 0.0478996 -0.0421986 0 0 0 100.674 
448.608 152.444 0 152.444 139.737 0 0 0 132.942 
480.929 121.201 0 121.201 69.5276 0 0 0 117.462 
484.26 84.1422 0 84.1422 36.9085 0 0 0 109.664 
482.366 58.2785 0 58.2785 21.578 0 0 0 105.439 
481.024 40.7877 0 40.7877 13.5647 0 0 0 103.037 
481.029 28.6982 0 28.6982 8.95378 0 0 0 101.65 
482.111 20.1681 0 20.1681 6.09932 0 0 0 100.864 
483.865 14.077 0 14.077 4.23372 0 0 0 100.443 
485.954 9.70939 0 9.70939 2.96502 0 0 0 100.245 
488.134 6.58446 0 6.58446 2.07758 0 0 0 100.183 
490.244 4.365 0 4.365 1.445 0 0 0 100.2 
492.188 2.80774 0 2.80774 0.988989 0 0 0 100.261 
493.912 1.73405 0 1.73405 0.65859 0 0 0 100.341 
495.394 1.01165 0 1.01165 0.419254 0 0 0 100.426 
496.63 0.542243 0 0.542243 0.246794 0 0 0 100.508 
497.628 0.252791 0 0.252791 0.123935 0 0 0 100.58 
498.403 0.0890238 0 0.0890238 0.0382511 0 0 0 100.64 
498.969 0.0104178 0 0.0104178 -0.019104 0 0 0 100.686 
499.338 -0.01378 0 -0.01378 -0.0541988 0 0 0 100.717 
499.52 -0.00781054 0 -0.00781054 -0.0708318 0 0 0 100.732 
427.011 117.711 0 117.711 138.647 0 0 0 134.448 
459.441 104.617 0 104.617 88.3117 0 0 0 123.543 
476.326 80.6809 0 80.6809 53.9897 0 0 0 115.621 
482.904 58.5755 0 58.5755 33.8137 0 0 0 110.402 
485.479 41.4905 0 41.4905 21.9832 0 0 0 107.002 
486.898 28.9666 0 28.9666 14.7595 0 0 0 104.773 
488.159 19.9438 0 19.9438 10.1359 0 0 0 103.302 
489.518 13.4972 0 13.4972 7.05199 0 0 0 102.333 
490.975 8.92754 0 8.92754 4.92853 0 0 0 101.7 
492.458 5.72261 0 5.72261 3.43329 0 0 0 101.294 
493.891 3.5077 0 3.5077 2.36545 0 0 0 101.042 
495.219 2.00796 0 2.00796 1.59726 0 0 0 100.893 
496.405 1.02146 0 1.02146 1.04364 0 0 0 100.812 
497.431 0.399975 0 0.399975 0.645761 0 0 0 100.773 
498.292 0.0351644 0 0.0351644 0.361863 0 0 0 100.761 
498.992 -0.151744 0 -0.151744 0.161834 0 0 0 100.764 
499.537 -0.217714 0 -0.217714 0.0239097 0 0 0 100.774 
499.935 -0.203893 0 -0.203893 -0.0674273 0 0 0 100.785 
500.196 -0.140304 0 -0.140304 -0.122818 0 0 0 100.794 
500.325 -0.0496276 0 -0.0496276 -0.148914 0 0 0 100.798 
418.177 93.1977 0 93.1977 135.407 0 0 0 134.955 
446.127 86.6169 0 86.6169 97.1149 0 0 0 126.777 
466.49 71.56 0 71.56 66.1429 0 0 0 119.725 
478.631 54.7216 0 54.7216 44.5398 0 0 0 114.329 
485.386 39.9218 0 39.9218 30.2308 0 0 0 110.386 
489.269 28.2 0 28.2 20.776 0 0 0 107.551 
491.743 19.3804 0 19.3804 14.4219 0 0 0 105.527 
493.531 12.9418 0 12.9418 10.06 0 0 0 104.086 
494.959 8.34554 0 8.34554 7.00942 0 0 0 103.065 
496.168 5.13236 0 5.13236 4.84707 0 0 0 102.347 
497.212 2.93773 0 2.93773 3.30207 0 0 0 101.846 
498.114 1.48186 0 1.48186 2.19486 0 0 0 101.501 
498.884 0.554369 0 0.554369 1.40243 0 0 0 101.268 
499.53 -0.00056833 0 -0.00056833 0.838116 0 0 0 101.112 
500.06 -0.296828 0 -0.296828 0.439765 0 0 0 101.011 
500.484 -0.416598 0 -0.416598 0.162356 0 0 0 100.948 
500.81 -0.418531 0 -0.418531 -0.0266542 0 0 0 100.909 
501.047 -0.344186 0 -0.344186 -0.150423 0 0 0 100.886 
501.2 -0.223121 0 -0.223121 -0.224779 0 0 0 100.874 
501.276 -0.0769971 0 -0.0769971 -0.25959 0 0 0 100.869 
413.982 73.9212 0 73.9212 132.803 0 0 0 135.318 
438.167 70.1509 0 70.1509 101.558 0 0 0 128.692 
458.534 60.4326 0 60.4326 74.2 0 0 0 122.497 
473.28 48.1766 0 48.1766 52.9266 0 0 0 117.269 
483.066 36.265 0 36.265 37.4141 0 0 0 113.107 
489.352 26.1215 0 26.1215 26.3885 0 0 0 109.897 
493.4 18.1116 0 18.1116 18.5903 0 0 0 107.467 
496.067 12.0848 0 12.0848 13.0544 0 0 0 105.648 
497.876 7.70876 0 7.70876 9.10289 0 0 0 104.299 
499.14 4.62737 0 4.62737 6.27104 0 0 0 103.308 
500.044 2.52413 0 2.52413 4.23912 0 0 0 102.587 
500.7 1.14019 0 1.14019 2.78379 0 0 0 102.066 
501.181 0.273663 0 0.273663 1.7463 0 0 0 101.694 
501.534 -0.228022 0 -0.228022 1.0122 0 0 0 101.431 
501.792 -0.477428 0 -0.477428 0.498195 0 0 0 101.248 
501.979 -0.555972 0 -0.555972 0.143566 0 0 0 101.123 
502.112 -0.521546 0 -0.521546 -0.0956958 0 0 0 101.04 
502.201 -0.414813 0 -0.414813 -0.250889 0 0 0 100.986 
502.257 -0.264296 0 -0.264296 -0.343371 0 0 0 100.954 
502.284 -0.0905201 0 -0.0905201 -0.386429 0 0 0 100.939 
411.821 57.6833 0 57.6833 130.923 0 0 0 135.622 
433.288 55.3428 0 55.3428 104.022 0 0 0 129.932 
452.751 48.9178 0 48.9178 79.5208 0 0 0 124.391 
468.455 40.1916 0 40.1916 59.1472 0 0 0 119.419 
480.092 31.0763 0 31.0763 43.2245 0 0 0 115.212 
488.257 22.8404 0 22.8404 31.22 0 0 0 111.79 
493.796 16.0428 0 16.0428 22.3369 0 0 0 109.081 
497.47 10.7677 0 10.7677 15.8241 0 0 0 106.976 
499.861 6.85885 0 6.85885 11.0745 0 0 0 105.366 
501.383 4.07298 0 4.07298 7.62562 0 0 0 104.149 
502.323 2.16098 0 2.16098 5.13389 0 0 0 103.24 
502.878 0.903314 0 0.903314 3.34505 0 0 0 102.567 
503.182 0.12124 0 0.12124 2.07107 0 0 0 102.074 
503.328 -0.323816 0 -0.323816 1.17273 0 0 0 101.718 
503.377 -0.535591 0 -0.535591 0.547003 0 0 0 101.463 
503.373 -0.589661 0 -0.589661 0.118083 0 0 0 101.283 
503.344 -0.539881 0 -0.539881 -0.169232 0 0 0 101.159 
503.309 -0.423995 0 -0.423995 -0.35426 0 0 0 101.078 
503.279 -0.268321 0 -0.268321 -0.463833 0 0 0 101.029 
503.263 -0.091622 0 -0.091622 -0.514627 0 0 0 101.005 
410.659 43.341 0 43.341 129.606 0 0 0 135.868 
430.235 41.8405 0 41.8405 105.481 0 0 0 130.767 
448.724 37.583 0 37.583 83.0461 0 0 0 125.691 
464.636 31.5316 0 31.5316 63.6026 0 0 0 120.958 
477.299 24.8901 0 24.8901 47.6637 0 0 0 116.782 
486.771 18.6152 0 18.6152 35.1028 0 0 0 113.25 
493.514 13.2457 0 13.2457 25.4636 0 0 0 110.358 
498.114 8.96371 0 8.96371 18.1996 0 0 0 108.048 
501.118 5.72862 0 5.72862 12.7979 0 0 0 106.239 
502.981 3.39281 0 3.39281 8.82511 0 0 0 104.845 
504.058 1.77706 0 1.77706 5.9327 0 0 0 103.785 
504.608 0.710561 0 0.710561 3.84836 0 0 0 102.988 
504.821 0.0479333 0 0.0479333 2.36265 0 0 0 102.396 
504.831 -0.326512 0 -0.326512 1.31634 0 0 0 101.961 
504.73 -0.500774 0 -0.500774 0.58968 0 0 0 101.646 
504.581 -0.53956 0 -0.53956 0.0935951 0 0 0 101.42 
504.425 -0.489196 0 -0.489196 -0.237118 0 0 0 101.263 
504.29 -0.382191 0 -0.382191 -0.449035 0 0 0 101.158 
504.192 -0.241183 0 -0.241183 -0.573972 0 0 0 101.094 