# vtk DataFile Version 2.0
Generated by inSilico's base::io::vtk::LegacyWriter
ASCII
DATASET UNSTRUCTURED_GRID
POINTS 441 float
0 0 0 
0.05 0 0 
0.1 0 0 
0.15 0 0 
0.2 0 0 
0.25 0 0 
0.3 0 0 
0.35 0 0 
0.4 0 0 
0.45 0 0 
0.5 0 0 
0.55 0 0 
0.6 0 0 
0.65 0 0 
0.7 0 0 
0.75 0 0 
0.8 0 0 
0.85 0 0 
0.9 0 0 
0.95 0 0 
1 0 0 
0 0.05 0 
0.05 0.05 0 
0.1 0.05 0 
0.15 0.05 0 
0.2 0.05 0 
0.25 0.05 0 
0.3 0.05 0 
0.35 0.05 0 
0.4 0.05 0 
0.45 0.05 0 
0.5 0.05 0 
0.55 0.05 0 
0.6 0.05 0 
0.65 0.05 0 
0.7 0.05 0 
0.75 0.05 0 
0.8 0.05 0 
0.85 0.05 0 
0.9 0.05 0 
0.95 0.05 0 
1 0.05 0 
0 0.1 0 
0.05 0.1 0 
0.1 0.1 0 
0.15 0.1 0 
0.2 0.1 0 
0.25 0.1 0 
0.3 0.1 0 
0.35 0.1 0 
0.4 0.1 0 
0.45 0.1 0 
0.5 0.1 0 
0.55 0.1 0 
0.6 0.1 0 
0.65 0.1 0 
0.7 0.1 0 
0.75 0.1 0 
0.8 0.1 0 
0.85 0.1 0 
0.9 0.1 0 
0.95 0.1 0 
1 0.1 0 
0 0.15 0 
0.05 0.15 0 
0.1 0.15 0 
0.15 0.15 0 
0.2 0.15 0 
0.25 0.15 0 
0.3 0.15 0 
0.35 0.15 0 
0.4 0.15 0 
0.45 0.15 0 
0.5 0.15 0 
0.55 0.15 0 
0.6 0.15 0 
0.65 0.15 0 
0.7 0.15 0 
0.75 0.15 0 
0.8 0.15 0 
0.85 0.15 0 
0.9 0.15 0 
0.95 0.15 0 
1 0.15 0 
0 0.2 0 
0.05 0.2 0 
0.1 0.2 0 
0.15 0.2 0 
0.2 0.2 0 
0.25 0.2 0 
0.3 0.2 0 
0.35 0.2 0 
0.4 0.2 0 
0.45 0.2 0 
0.5 0.2 0 
0.55 0.2 0 
0.6 0.2 0 
0.65 0.2 0 
0.7 0.2 0 
0.75 0.2 0 
0.8 0.2 0 
0.85 0.2 0 
0.9 0.2 0 
0.95 0.2 0 
1 0.2 0 
0 0.25 0 
0.05 0.25 0 
0.1 0.25 0 
0.15 0.25 0 
0.2 0.25 0 
0.25 0.25 0 
0.3 0.25 0 
0.35 0.25 0 
0.4 0.25 0 
0.45 0.25 0 
0.5 0.25 0 
0.55 0.25 0 
0.6 0.25 0 
0.65 0.25 0 
0.7 0.25 0 
0.75 0.25 0 
0.8 0.25 0 
0.85 0.25 0 
0.9 0.25 0 
0.95 0.25 0 
1 0.25 0 
0 0.3 0 
0.05 0.3 0 
0.1 0.3 0 
0.15 0.3 0 
0.2 0.3 0 
0.25 0.3 0 
0.3 0.3 0 
0.35 0.3 0 
0.4 0.3 0 
0.45 0.3 0 
0.5 0.3 0 
0.55 0.3 0 
0.6 0.3 0 
0.65 0.3 0 
0.7 0.3 0 
0.75 0.3 0 
0.8 0.3 0 
0.85 0.3 0 
0.9 0.3 0 
0.95 0.3 0 
1 0.3 0 
0 0.35 0 
0.05 0.35 0 
0.1 0.35 0 
0.15 0.35 0 
0.2 0.35 0 
0.25 0.35 0 
0.3 0.35 0 
0.35 0.35 0 
0.4 0.35 0 
0.45 0.35 0 
0.5 0.35 0 
0.55 0.35 0 
0.6 0.35 0 
0.65 0.35 0 
0.7 0.35 0 
0.75 0.35 0 
0.8 0.35 0 
0.85 0.35 0 
0.9 0.35 0 
0.95 0.35 0 
1 0.35 0 
0 0.4 0 
0.05 0.4 0 
0.1 0.4 0 
0.15 0.4 0 
0.2 0.4 0 
0.25 0.4 0 
0.3 0.4 0 
0.35 0.4 0 
0.4 0.4 0 
0.45 0.4 0 
0.5 0.4 0 
0.55 0.4 0 
0.6 0.4 0 
0.65 0.4 0 
0.7 0.4 0 
0.75 0.4 0 
0.8 0.4 0 
0.85 0.4 0 
0.9 0.4 0 
0.95 0.4 0 
1 0.4 0 
0 0.45 0 
0.05 0.45 0 
0.1 0.45 0 
0.15 0.45 0 
0.2 0.45 0 
0.25 0.45 0 
0.3 0.45 0 
0.35 0.45 0 
0.4 0.45 0 
0.45 0.45 0 
0.5 0.45 0 
0.55 0.45 0 
0.6 0.45 0 
0.65 0.45 0 
0.7 0.45 0 
0.75 0.45 0 
0.8 0.45 0 
0.85 0.45 0 
0.9 0.45 0 
0.95 0.45 0 
1 0.45 0 
0 0.5 0 
0.05 0.5 0 
0.1 0.5 0 
0.15 0.5 0 
0.2 0.5 0 
0.25 0.5 0 
0.3 0.5 0 
0.35 0.5 0 
0.4 0.5 0 
0.45 0.5 0 
0.5 0.5 0 
0.55 0.5 0 
0.6 0.5 0 
0.65 0.5 0 
0.7 0.5 0 
0.75 0.5 0 
0.8 0.5 0 
0.85 0.5 0 
0.9 0.5 0 
0.95 0.5 0 
1 0.5 0 
0 0.55 0 
0.05 0.55 0 
0.1 0.55 0 
0.15 0.55 0 
0.2 0.55 0 
0.25 0.55 0 
0.3 0.55 0 
0.35 0.55 0 
0.4 0.55 0 
0.45 0.55 0 
0.5 0.55 0 
0.55 0.55 0 
0.6 0.55 0 
0.65 0.55 0 
0.7 0.55 0 
0.75 0.55 0 
0.8 0.55 0 
0.85 0.55 0 
0.9 0.55 0 
0.95 0.55 0 
1 0.55 0 
0 0.6 0 
0.05 0.6 0 
0.1 0.6 0 
0.15 0.6 0 
0.2 0.6 0 
0.25 0.6 0 
0.3 0.6 0 
0.35 0.6 0 
0.4 0.6 0 
0.45 0.6 0 
0.5 0.6 0 
0.55 0.6 0 
0.6 0.6 0 
0.65 0.6 0 
0.7 0.6 0 
0.75 0.6 0 
0.8 0.6 0 
0.85 0.6 0 
0.9 0.6 0 
0.95 0.6 0 
1 0.6 0 
0 0.65 0 
0.05 0.65 0 
0.1 0.65 0 
0.15 0.65 0 
0.2 0.65 0 
0.25 0.65 0 
0.3 0.65 0 
0.35 0.65 0 
0.4 0.65 0 
0.45 0.65 0 
0.5 0.65 0 
0.55 0.65 0 
0.6 0.65 0 
0.65 0.65 0 
0.7 0.65 0 
0.75 0.65 0 
0.8 0.65 0 
0.85 0.65 0 
0.9 0.65 0 
0.95 0.65 0 
1 0.65 0 
0 0.7 0 
0.05 0.7 0 
0.1 0.7 0 
0.15 0.7 0 
0.2 0.7 0 
0.25 0.7 0 
0.3 0.7 0 
0.35 0.7 0 
0.4 0.7 0 
0.45 0.7 0 
0.5 0.7 0 
0.55 0.7 0 
0.6 0.7 0 
0.65 0.7 0 
0.7 0.7 0 
0.75 0.7 0 
0.8 0.7 0 
0.85 0.7 0 
0.9 0.7 0 
0.95 0.7 0 
1 0.7 0 
0 0.75 0 
0.05 0.75 0 
0.1 0.75 0 
0.15 0.75 0 
0.2 0.75 0 
0.25 0.75 0 
0.3 0.75 0 
0.35 0.75 0 
0.4 0.75 0 
0.45 0.75 0 
0.5 0.75 0 
0.55 0.75 0 
0.6 0.75 0 
0.65 0.75 0 
0.7 0.75 0 
0.75 0.75 0 
0.8 0.75 0 
0.85 0.75 0 
0.9 0.75 0 
0.95 0.75 0 
1 0.75 0 
0 0.8 0 
0.05 0.8 0 
0.1 0.8 0 
0.15 0.8 0 
0.2 0.8 0 
0.25 0.8 0 
0.3 0.8 0 
0.35 0.8 0 
0.4 0.8 0 
0.45 0.8 0 
0.5 0.8 0 
0.55 0.8 0 
0.6 0.8 0 
0.65 0.8 0 
0.7 0.8 0 
0.75 0.8 0 
0.8 0.8 0 
0.85 0.8 0 
0.9 0.8 0 
0.95 0.8 0 
1 0.8 0 
0 0.85 0 
0.05 0.85 0 
0.1 0.85 0 
0.15 0.85 0 
0.2 0.85 0 
0.25 0.85 0 
0.3 0.85 0 
0.35 0.85 0 
0.4 0.85 0 
0.45 0.85 0 
0.5 0.85 0 
0.55 0.85 0 
0.6 0.85 0 
0.65 0.85 0 
0.7 0.85 0 
0.75 0.85 0 
0.8 0.85 0 
0.85 0.85 0 
0.9 0.85 0 
0.95 0.85 0 
1 0.85 0 
0 0.9 0 
0.05 0.9 0 
0.1 0.9 0 
0.15 0.9 0 
0.2 0.9 0 
0.25 0.9 0 
0.3 0.9 0 
0.35 0.9 0 
0.4 0.9 0 
0.45 0.9 0 
0.5 0.9 0 
0.55 0.9 0 
0.6 0.9 0 
0.65 0.9 0 
0.7 0.9 0 
0.75 0.9 0 
0.8 0.9 0 
0.85 0.9 0 
0.9 0.9 0 
0.95 0.9 0 
1 0.9 0 
0 0.95 0 
0.05 0.95 0 
0.1 0.95 0 
0.15 0.95 0 
0.2 0.95 0 
0.25 0.95 0 
0.3 0.95 0 
0.35 0.95 0 
0.4 0.95 0 
0.45 0.95 0 
0.5 0.95 0 
0.55 0.95 0 
0.6 0.95 0 
0.65 0.95 0 
0.7 0.95 0 
0.75 0.95 0 
0.8 0.95 0 
0.85 0.95 0 
0.9 0.95 0 
0.95 0.95 0 
1 0.95 0 
0 1 0 
0.05 1 0 
0.1 1 0 
0.15 1 0 
0.2 1 0 
0.25 1 0 
0.3 1 0 
0.35 1 0 
0.4 1 0 
0.45 1 0 
0.5 1 0 
0.55 1 0 
0.6 1 0 
0.65 1 0 
0.7 1 0 
0.75 1 0 
0.8 1 0 
0.85 1 0 
0.9 1 0 
0.95 1 0 
1 1 0 
CELLS 400 2000
4 0 1 22 21 
4 1 2 23 22 
4 2 3 24 23 
4 3 4 25 24 
4 4 5 26 25 
4 5 6 27 26 
4 6 7 28 27 
4 7 8 29 28 
4 8 9 30 29 
4 9 10 31 30 
4 10 11 32 31 
4 11 12 33 32 
4 12 13 34 33 
4 13 14 35 34 
4 14 15 36 35 
4 15 16 37 36 
4 16 17 38 37 
4 17 18 39 38 
4 18 19 40 39 
4 19 20 41 40 
4 21 22 43 42 
4 22 23 44 43 
4 23 24 45 44 
4 24 25 46 45 
4 25 26 47 46 
4 26 27 48 47 
4 27 28 49 48 
4 28 29 50 49 
4 29 30 51 50 
4 30 31 52 51 
4 31 32 53 52 
4 32 33 54 53 
4 33 34 55 54 
4 34 35 56 55 
4 35 36 57 56 
4 36 37 58 57 
4 37 38 59 58 
4 38 39 60 59 
4 39 40 61 60 
4 40 41 62 61 
4 42 43 64 63 
4 43 44 65 64 
4 44 45 66 65 
4 45 46 67 66 
4 46 47 68 67 
4 47 48 69 68 
4 48 49 70 69 
4 49 50 71 70 
4 50 51 72 71 
4 51 52 73 72 
4 52 53 74 73 
4 53 54 75 74 
4 54 55 76 75 
4 55 56 77 76 
4 56 57 78 77 
4 57 58 79 78 
4 58 59 80 79 
4 59 60 81 80 
4 60 61 82 81 
4 61 62 83 82 
4 63 64 85 84 
4 64 65 86 85 
4 65 66 87 86 
4 66 67 88 87 
4 67 68 89 88 
4 68 69 90 89 
4 69 70 91 90 
4 70 71 92 91 
4 71 72 93 92 
4 72 73 94 93 
4 73 74 95 94 
4 74 75 96 95 
4 75 76 97 96 
4 76 77 98 97 
4 77 78 99 98 
4 78 79 100 99 
4 79 80 101 100 
4 80 81 102 101 
4 81 82 103 102 
4 82 83 104 103 
4 84 85 106 105 
4 85 86 107 106 
4 86 87 108 107 
4 87 88 109 108 
4 88 89 110 109 
4 89 90 111 110 
4 90 91 112 111 
4 91 92 113 112 
4 92 93 114 113 
4 93 94 115 114 
4 94 95 116 115 
4 95 96 117 116 
4 96 97 118 117 
4 97 98 119 118 
4 98 99 120 119 
4 99 100 121 120 
4 100 101 122 121 
4 101 102 123 122 
4 102 103 124 123 
4 103 104 125 124 
4 105 106 127 126 
4 106 107 128 127 
4 107 108 129 128 
4 108 109 130 129 
4 109 110 131 130 
4 110 111 132 131 
4 111 112 133 132 
4 112 113 134 133 
4 113 114 135 134 
4 114 115 136 135 
4 115 116 137 136 
4 116 117 138 137 
4 117 118 139 138 
4 118 119 140 139 
4 119 120 141 140 
4 120 121 142 141 
4 121 122 143 142 
4 122 123 144 143 
4 123 124 145 144 
4 124 125 146 145 
4 126 127 148 147 
4 127 128 149 148 
4 128 129 150 149 
4 129 130 151 150 
4 130 131 152 151 
4 131 132 153 152 
4 132 133 154 153 
4 133 134 155 154 
4 134 135 156 155 
4 135 136 157 156 
4 136 137 158 157 
4 137 138 159 158 
4 138 139 160 159 
4 139 140 161 160 
4 140 141 162 161 
4 141 142 163 162 
4 142 143 164 163 
4 143 144 165 164 
4 144 145 166 165 
4 145 146 167 166 
4 147 148 169 168 
4 148 149 170 169 
4 149 150 171 170 
4 150 151 172 171 
4 151 152 173 172 
4 152 153 174 173 
4 153 154 175 174 
4 154 155 176 175 
4 155 156 177 176 
4 156 157 178 177 
4 157 158 179 178 
4 158 159 180 179 
4 159 160 181 180 
4 160 161 182 181 
4 161 162 183 182 
4 162 163 184 183 
4 163 164 185 184 
4 164 165 186 185 
4 165 166 187 186 
4 166 167 188 187 
4 168 169 190 189 
4 169 170 191 190 
4 170 171 192 191 
4 171 172 193 192 
4 172 173 194 193 
4 173 174 195 194 
4 174 175 196 195 
4 175 176 197 196 
4 176 177 198 197 
4 177 178 199 198 
4 178 179 200 199 
4 179 180 201 200 
4 180 181 202 201 
4 181 182 203 202 
4 182 183 204 203 
4 183 184 205 204 
4 184 185 206 205 
4 185 186 207 206 
4 186 187 208 207 
4 187 188 209 208 
4 189 190 211 210 
4 190 191 212 211 
4 191 192 213 212 
4 192 193 214 213 
4 193 194 215 214 
4 194 195 216 215 
4 195 196 217 216 
4 196 197 218 217 
4 197 198 219 218 
4 198 199 220 219 
4 199 200 221 220 
4 200 201 222 221 
4 201 202 223 222 
4 202 203 224 223 
4 203 204 225 224 
4 204 205 226 225 
4 205 206 227 226 
4 206 207 228 227 
4 207 208 229 228 
4 208 209 230 229 
4 210 211 232 231 
4 211 212 233 232 
4 212 213 234 233 
4 213 214 235 234 
4 214 215 236 235 
4 215 216 237 236 
4 216 217 238 237 
4 217 218 239 238 
4 218 219 240 239 
4 219 220 241 240 
4 220 221 242 241 
4 221 222 243 242 
4 222 223 244 243 
4 223 224 245 244 
4 224 225 246 245 
4 225 226 247 246 
4 226 227 248 247 
4 227 228 249 248 
4 228 229 250 249 
4 229 230 251 250 
4 231 232 253 252 
4 232 233 254 253 
4 233 234 255 254 
4 234 235 256 255 
4 235 236 257 256 
4 236 237 258 257 
4 237 238 259 258 
4 238 239 260 259 
4 239 240 261 260 
4 240 241 262 261 
4 241 242 263 262 
4 242 243 264 263 
4 243 244 265 264 
4 244 245 266 265 
4 245 246 267 266 
4 246 247 268 267 
4 247 248 269 268 
4 248 249 270 269 
4 249 250 271 270 
4 250 251 272 271 
4 252 253 274 273 
4 253 254 275 274 
4 254 255 276 275 
4 255 256 277 276 
4 256 257 278 277 
4 257 258 279 278 
4 258 259 280 279 
4 259 260 281 280 
4 260 261 282 281 
4 261 262 283 282 
4 262 263 284 283 
4 263 264 285 284 
4 264 265 286 285 
4 265 266 287 286 
4 266 267 288 287 
4 267 268 289 288 
4 268 269 290 289 
4 269 270 291 290 
4 270 271 292 291 
4 271 272 293 292 
4 273 274 295 294 
4 274 275 296 295 
4 275 276 297 296 
4 276 277 298 297 
4 277 278 299 298 
4 278 279 300 299 
4 279 280 301 300 
4 280 281 302 301 
4 281 282 303 302 
4 282 283 304 303 
4 283 284 305 304 
4 284 285 306 305 
4 285 286 307 306 
4 286 287 308 307 
4 287 288 309 308 
4 288 289 310 309 
4 289 290 311 310 
4 290 291 312 311 
4 291 292 313 312 
4 292 293 314 313 
4 294 295 316 315 
4 295 296 317 316 
4 296 297 318 317 
4 297 298 319 318 
4 298 299 320 319 
4 299 300 321 320 
4 300 301 322 321 
4 301 302 323 322 
4 302 303 324 323 
4 303 304 325 324 
4 304 305 326 325 
4 305 306 327 326 
4 306 307 328 327 
4 307 308 329 328 
4 308 309 330 329 
4 309 310 331 330 
4 310 311 332 331 
4 311 312 333 332 
4 312 313 334 333 
4 313 314 335 334 
4 315 316 337 336 
4 316 317 338 337 
4 317 318 339 338 
4 318 319 340 339 
4 319 320 341 340 
4 320 321 342 341 
4 321 322 343 342 
4 322 323 344 343 
4 323 324 345 344 
4 324 325 346 345 
4 325 326 347 346 
4 326 327 348 347 
4 327 328 349 348 
4 328 329 350 349 
4 329 330 351 350 
4 330 331 352 351 
4 331 332 353 352 
4 332 333 354 353 
4 333 334 355 354 
4 334 335 356 355 
4 336 337 358 357 
4 337 338 359 358 
4 338 339 360 359 
4 339 340 361 360 
4 340 341 362 361 
4 341 342 363 362 
4 342 343 364 363 
4 343 344 365 364 
4 344 345 366 365 
4 345 346 367 366 
4 346 347 368 367 
4 347 348 369 368 
4 348 349 370 369 
4 349 350 371 370 
4 350 351 372 371 
4 351 352 373 372 
4 352 353 374 373 
4 353 354 375 374 
4 354 355 376 375 
4 355 356 377 376 
4 357 358 379 378 
4 358 359 380 379 
4 359 360 381 380 
4 360 361 382 381 
4 361 362 383 382 
4 362 363 384 383 
4 363 364 385 384 
4 364 365 386 385 
4 365 366 387 386 
4 366 367 388 387 
4 367 368 389 388 
4 368 369 390 389 
4 369 370 391 390 
4 370 371 392 391 
4 371 372 393 392 
4 372 373 394 393 
4 373 374 395 394 
4 374 375 396 395 
4 375 376 397 396 
4 376 377 398 397 
4 378 379 400 399 
4 379 380 401 400 
4 380 381 402 401 
4 381 382 403 402 
4 382 383 404 403 
4 383 384 405 404 
4 384 385 406 405 
4 385 386 407 406 
4 386 387 408 407 
4 387 388 409 408 
4 388 389 410 409 
4 389 390 411 410 
4 390 391 412 411 
4 391 392 413 412 
4 392 393 414 413 
4 393 394 415 414 
4 394 395 416 415 
4 395 396 417 416 
4 396 397 418 417 
4 397 398 419 418 
4 399 400 421 420 
4 400 401 422 421 
4 401 402 423 422 
4 402 403 424 423 
4 403 404 425 424 
4 404 405 426 425 
4 405 406 427 426 
4 406 407 428 427 
4 407 408 429 428 
4 408 409 430 429 
4 409 410 431 430 
4 410 411 432 431 
4 411 412 433 432 
4 412 413 434 433 
4 413 414 435 434 
4 414 415 436 435 
4 415 416 437 436 
4 416 417 438 437 
4 417 418 439 438 
4 418 419 440 439 
CELL_TYPES 400
9
9
9
9
9
9
9
9
9
9
9
9
9
9
9
9
9
9
9
9
9
9
9
9
9
9
9
9
9
9
9
9
9
9
9
9
9
9
9
9
9
9
9
9
9
9
9
9
9
9
9
9
9
9
9
9
9
9
9
9
9
9
9
9
9
9
9
9
9
9
9
9
9
9
9
9
9
9
9
9
9
9
9
9
9
9
9
9
9
9
9
9
9
9
9
9
9
9
9
9
9
9
9
9
9
9
9
9
9
9
9
9
9
9
9
9
9
9
9
9
9
9
9
9
9
9
9
9
9
9
9
9
9
9
9
9
9
9
9
9
9
9
9
9
9
9
9
9
9
9
9
9
9
9
9
9
9
9
9
9
9
9
9
9
9
9
9
9
9
9
9
9
9
9
9
9
9
9
9
9
9
9
9
9
9
9
9
9
9
9
9
9
9
9
9
9
9
9
9
9
9
9
9
9
9
9
9
9
9
9
9
9
9
9
9
9
9
9
9
9
9
9
9
9
9
9
9
9
9
9
9
9
9
9
9
9
9
9
9
9
9
9
9
9
9
9
9
9
9
9
9
9
9
9
9
9
9
9
9
9
9
9
9
9
9
9
9
9
9
9
9
9
9
9
9
9
9
9
9
9
9
9
9
9
9
9
9
9
9
9
9
9
9
9
9
9
9
9
9
9
9
9
9
9
9
9
9
9
9
9
9
9
9
9
9
9
9
9
9
9
9
9
9
9
9
9
9
9
9
9
9
9
9
9
9
9
9
9
9
9
9
9
9
9
9
9
9
9
9
9
9
9
9
9
9
9
9
9
9
9
9
9
9
9
9
9
9
9
9
9
9
9
9
9
9
9
9
9
9
9
9
9
9
9
9
9
9
9
9
9
9
9
9
9
9
9
9
9
9
9
POINT_DATA 441
VECTORS disp float 
0 0 0 
0.0089433 0.00838233 0 
0.0155491 0.0132334 0 
0.0215581 0.0166113 0 
0.0273668 0.0191003 0 
0.0331209 0.0209708 0 
0.0388872 0.0223848 0 
0.0446987 0.0234527 0 
0.0505712 0.0242551 0 
0.0565104 0.0248532 0 
0.0625163 0.0252942 0 
0.0685855 0.0256152 0 
0.0747125 0.0258452 0 
0.0808908 0.0260072 0 
0.0871133 0.0261188 0 
0.0933731 0.026194 0 
0.0996632 0.0262431 0 
0.105977 0.0262741 0 
0.112309 0.0262924 0 
0.118651 0.026302 0 
0.125 0.0263049 0 
0 0 0 
0.00611544 0.00588909 0 
0.0129223 0.0106509 0 
0.0194084 0.0141134 0 
0.0256529 0.0166599 0 
0.031768 0.0185557 0 
0.0378268 0.0199737 0 
0.0438734 0.0210328 0 
0.0499336 0.0218194 0 
0.056022 0.0223983 0 
0.0621457 0.0228192 0 
0.0683072 0.0231206 0 
0.0745059 0.0233325 0 
0.0807393 0.0234782 0 
0.087004 0.0235759 0 
0.0932957 0.0236393 0 
0.0996098 0.023679 0 
0.105942 0.0237026 0 
0.112287 0.0237159 0 
0.118641 0.0237224 0 
0.125 0.0237244 0 
0 0 0 
0.00544191 0.00447858 0 
0.0115833 0.00854313 0 
0.0179473 0.0117849 0 
0.0242937 0.0142627 0 
0.030581 0.0161325 0 
0.0368228 0.0175345 0 
0.0430406 0.0185786 0 
0.0492525 0.0193493 0 
0.0554714 0.0199117 0 
0.0617053 0.0203162 0 
0.0679584 0.020602 0 
0.0742326 0.0207996 0 
0.0805277 0.0209326 0 
0.0868423 0.0210193 0 
0.0931745 0.0210735 0 
0.0995215 0.0211057 0 
0.10588 0.0211237 0 
0.112249 0.021133 0 
0.118623 0.0211371 0 
0.125 0.0211383 0 
0 0 0 
0.00519677 0.00354216 0 
0.0109484 0.00688742 0 
0.0170572 0.00973385 0 
0.0233217 0.0120116 0 
0.0296354 0.0137765 0 
0.0359575 0.0151178 0 
0.0422775 0.0161224 0 
0.0485962 0.0168644 0 
0.0549173 0.0174042 0 
0.0612445 0.0177902 0 
0.0675804 0.0180605 0 
0.0739265 0.018245 0 
0.0802831 0.0183672 0 
0.0866501 0.0184449 0 
0.0930265 0.018492 0 
0.0994111 0.0185186 0 
0.105802 0.0185324 0 
0.112199 0.0185387 0 
0.118598 0.0185411 0 
0.125 0.0185417 0 
0 0 0 
0.00508226 0.00283152 0 
0.0106201 0.00554599 0 
0.0165224 0.00794558 0 
0.0226584 0.00993976 0 
0.0289244 0.0115291 0 
0.0352573 0.0127597 0 
0.0416237 0.0136918 0 
0.0480075 0.0143842 0 
0.054401 0.0148888 0 
0.0608011 0.0152491 0 
0.0672063 0.0155002 0 
0.073616 0.0156705 0 
0.0800297 0.0157819 0 
0.086447 0.0158516 0 
0.0928675 0.0158926 0 
0.0992907 0.0159149 0 
0.105716 0.0159257 0 
0.112143 0.01593 0 
0.118571 0.0159313 0 
0.125 0.0159316 0 
0 0 0 
0.0050213 0.00224389 0 
0.0104352 0.00440865 0 
0.0161931 0.00636544 0 
0.0222115 0.00803651 0 
0.028407 0.00940115 0 
0.0347149 0.0104778 0 
0.0410912 0.0113041 0 
0.0475081 0.0119233 0 
0.0539483 0.0123766 0 
0.0604015 0.0127009 0 
0.0668612 0.0129268 0 
0.0733238 0.0130793 0 
0.0797871 0.0131785 0 
0.0862497 0.0132399 0 
0.0927112 0.0132755 0 
0.0991711 0.0132942 0 
0.10563 0.0133027 0 
0.112087 0.0133057 0 
0.118544 0.0133064 0 
0.125 0.0133064 0 
0 0 0 
0.00498654 0.00173037 0 
0.0103249 0.00340472 0 
0.0159853 0.00493856 0 
0.0219114 0.00627307 0 
0.028039 0.00738363 0 
0.0343094 0.0082742 0 
0.0406763 0.00896638 0 
0.0471055 0.00948977 0 
0.0535729 0.0098754 0 
0.0600623 0.0101522 0 
0.0665626 0.0103452 0 
0.0730669 0.0104756 0 
0.0795708 0.01056 0 
0.0860718 0.010612 0 
0.0925688 0.0106418 0 
0.0990614 0.0106572 0 
0.10555 0.010664 0 
0.112035 0.0106661 0 
0.118518 0.0106664 0 
0.125 0.0106663 0 
0 0 0 
0.00496611 0.00126398 0 
0.0102574 0.00248896 0 
0.0158531 0.0036203 0 
0.0217125 0.00461688 0 
0.0277847 0.00545759 0 
0.0340186 0.00614036 0 
0.040369 0.0066767 0 
0.0467991 0.0070856 0 
0.0532807 0.00738868 0 
0.0597932 0.00760708 0 
0.066322 0.00775979 0 
0.0728571 0.00786294 0 
0.0793922 0.00792977 0 
0.0859236 0.00797079 0 
0.0924493 0.00799419 0 
0.0989687 0.00800616 0 
0.105482 0.00801129 0 
0.111991 0.00801282 0 
0.118496 0.00801292 0 
0.125 0.00801282 0 
0 0 0 
0.00495426 0.000827745 0 
0.0102169 0.00163063 0 
0.0157716 0.00237577 0 
0.0215863 0.00303729 0 
0.027619 0.00360045 0 
0.033824 0.00406189 0 
0.0401584 0.00442722 0 
0.0465848 0.00470752 0 
0.0530728 0.0049163 0 
0.0595991 0.00506727 0 
0.0661463 0.00517307 0 
0.0727025 0.00524464 0 
0.0792596 0.00529101 0 
0.0858128 0.00531947 0 
0.0923594 0.00533566 0 
0.0988988 0.00534391 0 
0.105431 0.0053474 0 
0.111958 0.00534841 0 
0.11848 0.00534844 0 
0.125 0.00534836 0 
0 0 0 
0.00494807 0.000409608 0 
0.0101951 0.000807086 0 
0.0157271 0.00117695 0 
0.0215164 0.00150672 0 
0.0275254 0.00178891 0 
0.0337124 0.00202135 0 
0.0400358 0.00220625 0 
0.0464584 0.00234869 0 
0.0529488 0.00245511 0 
0.0594821 0.00253224 0 
0.0660397 0.00258639 0 
0.072608 0.00262305 0 
0.0791781 0.00264683 0 
0.0857443 0.00266141 0 
0.0923037 0.00266971 0 
0.0988553 0.00267392 0 
0.105399 0.0026757 0 
0.111937 0.00267621 0 
0.11847 0.00267622 0 
0.125 0.00267618 0 
0 0 0 
0.00494614 3.70577e-18 0 
0.0101883 2.14691e-18 0 
0.015713 5.12286e-18 0 
0.021494 9.06325e-18 0 
0.0274952 1.27936e-17 0 
0.033676 9.09248e-18 0 
0.0399955 3.36272e-18 0 
0.0464166 -7.55215e-18 0 
0.0529076 -1.53957e-17 0 
0.0594431 -1.99154e-17 0 
0.0660039 -9.97466e-18 0 
0.0725762 -1.32747e-17 0 
0.0791506 -1.01034e-17 0 
0.0857212 -2.102e-17 0 
0.0922849 -3.03373e-17 0 
0.0988405 -3.339e-17 0 
0.105388 -2.88466e-17 0 
0.11193 -1.7166e-17 0 
0.118466 -3.33392e-18 0 
0.125 5.63785e-18 0 
0 0 0 
0.00494807 -0.000409608 0 
0.0101951 -0.000807086 0 
0.0157271 -0.00117695 0 
0.0215164 -0.00150672 0 
0.0275254 -0.00178891 0 
0.0337124 -0.00202135 0 
0.0400358 -0.00220625 0 
0.0464584 -0.00234869 0 
0.0529488 -0.00245511 0 
0.0594821 -0.00253224 0 
0.0660397 -0.00258639 0 
0.072608 -0.00262305 0 
0.0791781 -0.00264683 0 
0.0857443 -0.00266141 0 
0.0923037 -0.00266971 0 
0.0988553 -0.00267392 0 
0.105399 -0.0026757 0 
0.111937 -0.00267621 0 
0.11847 -0.00267622 0 
0.125 -0.00267618 0 
0 0 0 
0.00495426 -0.000827745 0 
0.0102169 -0.00163063 0 
0.0157716 -0.00237577 0 
0.0215863 -0.00303729 0 
0.027619 -0.00360045 0 
0.033824 -0.00406189 0 
0.0401584 -0.00442722 0 
0.0465848 -0.00470752 0 
0.0530728 -0.0049163 0 
0.0595991 -0.00506727 0 
0.0661463 -0.00517307 0 
0.0727025 -0.00524464 0 
0.0792596 -0.00529101 0 
0.0858128 -0.00531947 0 
0.0923594 -0.00533566 0 
0.0988988 -0.00534391 0 
0.105431 -0.0053474 0 
0.111958 -0.00534841 0 
0.11848 -0.00534844 0 
0.125 -0.00534836 0 
0 0 0 
0.00496611 -0.00126398 0 
0.0102574 -0.00248896 0 
0.0158531 -0.0036203 0 
0.0217125 -0.00461688 0 
0.0277847 -0.00545759 0 
0.0340186 -0.00614036 0 
0.040369 -0.0066767 0 
0.0467991 -0.0070856 0 
0.0532807 -0.00738868 0 
0.0597932 -0.00760708 0 
0.066322 -0.00775979 0 
0.0728571 -0.00786294 0 
0.0793922 -0.00792977 0 
0.0859236 -0.00797079 0 
0.0924493 -0.00799419 0 
0.0989687 -0.00800616 0 
0.105482 -0.00801129 0 
0.111991 -0.00801282 0 
0.118496 -0.00801292 0 
0.125 -0.00801282 0 
0 0 0 
0.00498654 -0.00173037 0 
0.0103249 -0.00340472 0 
0.0159853 -0.00493856 0 
0.0219114 -0.00627307 0 
0.028039 -0.00738363 0 
0.0343094 -0.0082742 0 
0.0406763 -0.00896638 0 
0.0471055 -0.00948977 0 
0.0535729 -0.0098754 0 
0.0600623 -0.0101522 0 
0.0665626 -0.0103452 0 
0.0730669 -0.0104756 0 
0.0795708 -0.01056 0 
0.0860718 -0.010612 0 
0.0925688 -0.0106418 0 
0.0990614 -0.0106572 0 
0.10555 -0.010664 0 
0.112035 -0.0106661 0 
0.118518 -0.0106664 0 
0.125 -0.0106663 0 
0 0 0 
0.0050213 -0.00224389 0 
0.0104352 -0.00440865 0 
0.0161931 -0.00636544 0 
0.0222115 -0.00803651 0 
0.028407 -0.00940115 0 
0.0347149 -0.0104778 0 
0.0410912 -0.0113041 0 
0.0475081 -0.0119233 0 
0.0539483 -0.0123766 0 
0.0604015 -0.0127009 0 
0.0668612 -0.0129268 0 
0.0733238 -0.0130793 0 
0.0797871 -0.0131785 0 
0.0862497 -0.0132399 0 
0.0927112 -0.0132755 0 
0.0991711 -0.0132942 0 
0.10563 -0.0133027 0 
0.112087 -0.0133057 0 
0.118544 -0.0133064 0 
0.125 -0.0133064 0 
0 0 0 
0.00508226 -0.00283152 0 
0.0106201 -0.00554599 0 
0.0165224 -0.00794558 0 
0.0226584 -0.00993976 0 
0.0289244 -0.0115291 0 
0.0352573 -0.0127597 0 
0.0416237 -0.0136918 0 
0.0480075 -0.0143842 0 
0.054401 -0.0148888 0 
0.0608011 -0.0152491 0 
0.0672063 -0.0155002 0 
0.073616 -0.0156705 0 
0.0800297 -0.0157819 0 
0.086447 -0.0158516 0 
0.0928675 -0.0158926 0 
0.0992907 -0.0159149 0 
0.105716 -0.0159257 0 
0.112143 -0.01593 0 
0.118571 -0.0159313 0 
0.125 -0.0159316 0 
0 0 0 
0.00519677 -0.00354216 0 
0.0109484 -0.00688742 0 
0.0170572 -0.00973385 0 
0.0233217 -0.0120116 0 
0.0296354 -0.0137765 0 
0.0359575 -0.0151178 0 
0.0422775 -0.0161224 0 
0.0485962 -0.0168644 0 
0.0549173 -0.0174042 0 
0.0612445 -0.0177902 0 
0.0675804 -0.0180605 0 
0.0739265 -0.018245 0 
0.0802831 -0.0183672 0 
0.0866501 -0.0184449 0 
0.0930265 -0.018492 0 
0.0994111 -0.0185186 0 
0.105802 -0.0185324 0 
0.112199 -0.0185387 0 
0.118598 -0.0185411 0 
0.125 -0.0185417 0 
0 0 0 
0.00544191 -0.00447858 0 
0.0115833 -0.00854313 0 
0.0179473 -0.0117849 0 
0.0242937 -0.0142627 0 
0.030581 -0.0161325 0 
0.0368228 -0.0175345 0 
0.0430406 -0.0185786 0 
0.0492525 -0.0193493 0 
0.0554714 -0.0199117 0 
0.0617053 -0.0203162 0 
0.0679584 -0.020602 0 
0.0742326 -0.0207996 0 
0.0805277 -0.0209326 0 
0.0868423 -0.0210193 0 
0.0931745 -0.0210735 0 
0.0995215 -0.0211057 0 
0.10588 -0.0211237 0 
0.112249 -0.021133 0 
0.118623 -0.0211371 0 
0.125 -0.0211383 0 
0 0 0 
0.00611544 -0.00588909 0 
0.0129223 -0.0106509 0 
0.0194084 -0.0141134 0 
0.0256529 -0.0166599 0 
0.031768 -0.0185557 0 
0.0378268 -0.0199737 0 
0.0438734 -0.0210328 0 
0.0499336 -0.0218194 0 
0.056022 -0.0223983 0 
0.0621457 -0.0228192 0 
0.0683072 -0.0231206 0 
0.0745059 -0.0233325 0 
0.0807393 -0.0234782 0 
0.087004 -0.0235759 0 
0.0932957 -0.0236393 0 
0.0996098 -0.023679 0 
0.105942 -0.0237026 0 
0.112287 -0.0237159 0 
0.118641 -0.0237224 0 
0.125 -0.0237244 0 
0 0 0 
0.0089433 -0.00838233 0 
0.0155491 -0.0132334 0 
0.0215581 -0.0166113 0 
0.0273668 -0.0191003 0 
0.0331209 -0.0209708 0 
0.0388872 -0.0223848 0 
0.0446987 -0.0234527 0 
0.0505712 -0.0242551 0 
0.0565104 -0.0248532 0 
0.0625163 -0.0252942 0 
0.0685855 -0.0256152 0 
0.0747125 -0.0258452 0 
0.0808908 -0.0260072 0 
0.0871133 -0.0261188 0 
0.0933731 -0.026194 0 
0.0996632 -0.0262431 0 
0.105977 -0.0262741 0 
0.112309 -0.0262924 0 
0.118651 -0.026302 0 
0.125 -0.0263049 0 
CELL_DATA 400
TENSORS sigma float 
166.03 44.531 0 44.531 20.2142 0 0 0 49.294 
144.359 19.5478 0 19.5478 5.90456 0 0 0 40.4501 
133.066 10.9486 0 10.9486 2.55569 0 0 0 36.7828 
127.704 6.8583 0 6.8583 1.34164 0 0 0 35.1183 
125.364 4.51255 0 4.51255 0.77145 0 0 0 34.3717 
124.634 3.01974 0 3.01974 0.460135 0 0 0 34.0954 
124.789 2.0132 0 2.0132 0.273159 0 0 0 34.0739 
125.425 1.31375 0 1.31375 0.153316 0 0 0 34.1911 
126.303 0.821998 0 0.821998 0.0729373 0 0 0 34.3799 
127.278 0.477082 0 0.477082 0.0173452 0 0 0 34.5996 
128.257 0.238806 0 0.238806 -0.0218389 0 0 0 34.8254 
129.184 0.079061 0 0.079061 -0.0497113 0 0 0 35.0421 
130.028 -0.0225878 0 -0.0225878 -0.0695557 0 0 0 35.2408 
130.771 -0.0813652 0 -0.0813652 -0.0835984 0 0 0 35.4164 
131.404 -0.108761 0 -0.108761 -0.0934134 0 0 0 35.5667 
131.925 -0.113493 0 -0.113493 -0.100146 0 0 0 35.6908 
132.336 -0.102188 0 -0.102188 -0.104641 0 0 0 35.7889 
132.64 -0.0799058 0 -0.0799058 -0.107515 0 0 0 35.8616 
132.841 -0.0505575 0 -0.0505575 -0.109202 0 0 0 35.9096 
132.941 -0.0172732 0 -0.0172732 -0.109977 0 0 0 35.9334 
139.475 37.8118 0 37.8118 42.1024 0 0 0 50.5215 
141.158 27.9331 0 27.9331 17.3854 0 0 0 43.2711 
137.484 17.1239 0 17.1239 8.3476 0 0 0 39.6917 
133.772 10.4216 0 10.4216 4.55912 0 0 0 37.6434 
131.248 6.33868 0 6.33868 2.70924 0 0 0 36.4525 
129.817 3.76991 0 3.76991 1.68901 0 0 0 35.7767 
129.176 2.11165 0 2.11165 1.07332 0 0 0 35.4185 
129.059 1.03004 0 1.03004 0.676783 0 0 0 35.2579 
129.271 0.329245 0 0.329245 0.409481 0 0 0 35.2194 
129.674 -0.112809 0 -0.112809 0.223846 0 0 0 35.2543 
130.171 -0.376217 0 -0.376217 0.0927102 0 0 0 35.3306 
130.7 -0.515583 0 -0.515583 -0.000547525 0 0 0 35.4272 
131.216 -0.569096 0 -0.569096 -0.0667573 0 0 0 35.5301 
131.694 -0.563819 0 -0.563819 -0.113362 0 0 0 35.6301 
132.116 -0.518981 0 -0.518981 -0.145692 0 0 0 35.7215 
132.474 -0.448151 0 -0.448151 -0.167662 0 0 0 35.8006 
132.761 -0.360765 0 -0.360765 -0.182173 0 0 0 35.8653 
132.977 -0.263251 0 -0.263251 -0.191346 0 0 0 35.9145 
133.121 -0.159905 0 -0.159905 -0.196674 0 0 0 35.9475 
133.193 -0.0536007 0 -0.0536007 -0.199106 0 0 0 35.964 
130.077 30.2775 0 30.2775 44.6894 0 0 0 49.3459 
134.896 26.0689 0 26.0689 27.1354 0 0 0 45.0437 
136.192 18.9233 0 18.9233 15.564 0 0 0 41.7595 
135.414 12.5932 0 12.5932 9.21707 0 0 0 39.5829 
134.149 7.97075 0 7.97075 5.68405 0 0 0 38.1502 
133.066 4.78168 0 4.78168 3.60564 0 0 0 37.212 
132.335 2.62619 0 2.62619 2.31185 0 0 0 36.6065 
131.935 1.19169 0 1.19169 1.46815 0 0 0 36.2265 
131.793 0.258804 0 0.258804 0.898954 0 0 0 35.9993 
131.832 -0.324086 0 -0.324086 0.506439 0 0 0 35.8751 
131.987 -0.662638 0 -0.662638 0.232713 0 0 0 35.8191 
132.207 -0.831401 0 -0.831401 0.0414436 0 0 0 35.807 
132.455 -0.883405 0 -0.883405 -0.0914286 0 0 0 35.8216 
132.704 -0.856441 0 -0.856441 -0.182564 0 0 0 35.8509 
132.937 -0.777285 0 -0.777285 -0.243892 0 0 0 35.8864 
133.142 -0.664649 0 -0.664649 -0.284126 0 0 0 35.9223 
133.312 -0.531336 0 -0.531336 -0.309662 0 0 0 35.9547 
133.441 -0.38585 0 -0.38585 -0.325131 0 0 0 35.9809 
133.529 -0.233657 0 -0.233657 -0.333756 0 0 0 35.9992 
133.573 -0.0782061 0 -0.0782061 -0.337575 0 0 0 36.0086 
125.905 24.3156 0 24.3156 44.9746 0 0 0 48.6053 
130.788 22.1968 0 22.1968 31.9154 0 0 0 45.7185 
133.796 17.7638 0 17.7638 21.1855 0 0 0 43.0748 
134.981 12.8848 0 12.8848 13.7981 0 0 0 41.0138 
135.091 8.68888 0 8.68888 9.01162 0 0 0 39.4969 
134.767 5.46366 0 5.46366 5.91506 0 0 0 38.4041 
134.359 3.12498 0 3.12498 3.87258 0 0 0 37.6264 
134.014 1.49434 0 1.49434 2.49446 0 0 0 37.0796 
133.776 0.398927 0 0.398927 1.54725 0 0 0 36.7009 
133.642 -0.302822 0 -0.302822 0.888649 0 0 0 36.4439 
133.591 -0.720242 0 -0.720242 0.428846 0 0 0 36.2742 
133.599 -0.93561 0 -0.93561 0.108836 0 0 0 36.1667 
133.645 -1.00992 0 -1.00992 -0.111698 0 0 0 36.1024 
133.712 -0.987808 0 -0.987808 -0.261235 0 0 0 36.0676 
133.787 -0.901438 0 -0.901438 -0.360377 0 0 0 36.0519 
133.86 -0.773554 0 -0.773554 -0.424225 0 0 0 36.0479 
133.924 -0.619843 0 -0.619843 -0.463854 0 0 0 36.0501 
133.976 -0.450802 0 -0.450802 -0.487258 0 0 0 36.0546 
134.012 -0.273236 0 -0.273236 -0.499973 0 0 0 36.059 
134.03 -0.0914922 0 -0.0914922 -0.505489 0 0 0 36.0616 
123.802 19.4468 0 19.4468 44.978 0 0 0 48.2213 
128.296 18.2139 0 18.2139 34.426 0 0 0 46.0232 
131.762 15.3944 0 15.3944 24.9562 0 0 0 43.8736 
133.934 11.8755 0 11.8755 17.515 0 0 0 42.018 
135.039 8.47089 0 8.47089 12.0858 0 0 0 40.523 
135.461 5.59836 0 5.59836 8.24388 0 0 0 39.3602 
135.515 3.36603 0 3.36603 5.54466 0 0 0 38.4738 
135.405 1.72762 0 1.72762 3.64404 0 0 0 37.8071 
135.239 0.58269 0 0.58269 2.30084 0 0 0 37.3115 
135.072 -0.175767 0 -0.175767 1.35056 0 0 0 36.9473 
134.927 -0.642782 0 -0.642782 0.680435 0 0 0 36.6831 
134.81 -0.896256 0 -0.896256 0.211754 0 0 0 36.4943 
134.719 -0.997223 0 -0.997223 -0.111648 0 0 0 36.3618 
134.652 -0.992033 0 -0.992033 -0.330626 0 0 0 36.2707 
134.603 -0.914966 0 -0.914966 -0.475291 0 0 0 36.2096 
134.569 -0.79073 0 -0.79073 -0.567952 0 0 0 36.1697 
134.545 -0.636645 0 -0.636645 -0.625052 0 0 0 36.1447 
134.53 -0.464498 0 -0.464498 -0.658483 0 0 0 36.1296 
134.52 -0.282089 0 -0.282089 -0.676482 0 0 0 36.1213 
134.516 -0.0945447 0 -0.0945447 -0.68423 0 0 0 36.1177 
122.654 15.2603 0 15.2603 44.963 0 0 0 48.0271 
126.771 14.4757 0 14.4757 35.8908 0 0 0 46.1998 
130.278 12.6274 0 12.6274 27.4395 0 0 0 44.3756 
132.889 10.1509 0 10.1509 20.2845 0 0 0 42.7092 
134.603 7.55785 0 7.55785 14.6237 0 0 0 41.279 
135.6 5.20871 0 5.20871 10.3238 0 0 0 40.0998 
136.094 3.27315 0 3.27315 7.12939 0 0 0 39.1523 
136.271 1.78478 0 1.78478 4.78495 0 0 0 38.4047 
136.259 0.70475 0 0.70475 3.07837 0 0 0 37.8229 
136.146 -0.0344794 0 -0.0344794 1.84601 0 0 0 37.3756 
135.985 -0.504974 0 -0.504974 0.964857 0 0 0 37.0356 
135.809 -0.77209 0 -0.77209 0.342942 0 0 0 36.7803 
135.636 -0.890371 0 -0.890371 -0.0887137 0 0 0 36.5908 
135.477 -0.903004 0 -0.903004 -0.382062 0 0 0 36.4521 
135.337 -0.842876 0 -0.842876 -0.576296 0 0 0 36.3521 
135.221 -0.734215 0 -0.734215 -0.70088 0 0 0 36.2814 
135.127 -0.594318 0 -0.594318 -0.777723 0 0 0 36.2328 
135.057 -0.435164 0 -0.435164 -0.822746 0 0 0 36.2007 
135.011 -0.264855 0 -0.264855 -0.847 0 0 0 36.1813 
134.988 -0.0888615 0 -0.0888615 -0.857446 0 0 0 36.1722 
121.997 11.511 0 11.511 44.9593 0 0 0 47.9305 
125.824 10.9948 0 10.9948 36.806 0 0 0 46.3191 
129.253 9.77385 0 9.77385 29.0813 0 0 0 44.7027 
132.039 8.07205 0 8.07205 22.2585 0 0 0 43.1804 
134.099 6.19696 0 6.19696 16.5689 0 0 0 41.8196 
135.488 4.40972 0 4.40972 12.0199 0 0 0 40.6497 
136.333 2.86914 0 2.86914 8.48853 0 0 0 39.6724 