# vtk DataFile Version 2.0
Generated by inSilico's base::io::vtk::LegacyWriter
ASCII
DATASET UNSTRUCTURED_GRID
POINTS 441 float
0 0 0 
0.05 0 0 
0.1 0 0 
0.15 0 0 
0.2 0 0 
0.25 0 0 
0.3 0 0 
0.35 0 0 
0.4 0 0 
0.45 0 0 
0.5 0 0 
0.55 0 0 
0.6 0 0 
0.65 0 0 
0.7 0 0 
0.75 0 0 
0.8 0 0 
0.85 0 0 
0.9 0 0 
0.95 0 0 
1 0 0 
0 0.05 0 
0.05 0.05 0 
0.1 0.05 0 
0.15 0.05 0 
0.2 0.05 0 
0.25 0.05 0 
0.3 0.05 0 
0.35 0.05 0 
0.4 0.05 0 
0.45 0.05 0 
0.5 0.05 0 
0.55 0.05 0 
0.6 0.05 0 
0.65 0.05 0 
0.7 0.05 0 
0.75 0.05 0 
0.8 0.05 0 
0.85 0.05 0 
0.9 0.05 0 
0.95 0.05 0 
1 0.05 0 
0 0.1 0 
0.05 0.1 0 
0.1 0.1 0 
0.15 0.1 0 
0.2 0.1 0 
0.25 0.1 0 
0.3 0.1 0 
0.35 0.1 0 
0.4 0.1 0 
0.45 0.1 0 
0.5 0.1 0 
0.55 0.1 0 
0.6 0.1 0 
0.65 0.1 0 
0.7 0.1 0 
0.75 0.1 0 
0.8 0.1 0 
0.85 0.1 0 
0.9 0.1 0 
0.95 0.1 0 
1 0.1 0 
0 0.15 0 
0.05 0.15 0 
0.1 0.15 0 
0.15 0.15 0 
0.2 0.15 0 
0.25 0.15 0 
0.3 0.15 0 
0.35 0.15 0 
0.4 0.15 0 
0.45 0.15 0 
0.5 0.15 0 
0.55 0.15 0 
0.6 0.15 0 
0.65 0.15 0 
0.7 0.15 0 
0.75 0.15 0 
0.8 0.15 0 
0.85 0.15 0 
0.9 0.15 0 
0.95 0.15 0 
1 0.15 0 
0 0.2 0 
0.05 0.2 0 
0.1 0.2 0 
0.15 0.2 0 
0.2 0.2 0 
0.25 0.2 0 
0.3 0.2 0 
0.35 0.2 0 
0.4 0.2 0 
0.45 0.2 0 
0.5 0.2 0 
0.55 0.2 0 
0.6 0.2 0 
0.65 0.2 0 
0.7 0.2 0 
0.75 0.2 0 
0.8 0.2 0 
0.85 0.2 0 
0.9 0.2 0 
0.95 0.2 0 
1 0.2 0 
0 0.25 0 
0.05 0.25 0 
0.1 0.25 0 
0.15 0.25 0 
0.2 0.25 0 
0.25 0.25 0 
0.3 0.25 0 
0.35 0.25 0 
0.4 0.25 0 
0.45 0.25 0 
0.5 0.25 0 
0.55 0.25 0 
0.6 0.25 0 
0.65 0.25 0 
0.7 0.25 0 
0.75 0.25 0 
0.8 0.25 0 
0.85 0.25 0 
0.9 0.25 0 
0.95 0.25 0 
1 0.25 0 
0 0.3 0 
0.05 0.3 0 
0.1 0.3 0 
0.15 0.3 0 
0.2 0.3 0 
0.25 0.3 0 
0.3 0.3 0 
0.35 0.3 0 
0.4 0.3 0 
0.45 0.3 0 
0.5 0.3 0 
0.55 0.3 0 
0.6 0.3 0 
0.65 0.3 0 
0.7 0.3 0 
0.75 0.3 0 
0.8 0.3 0 
0.85 0.3 0 
0.9 0.3 0 
0.95 0.3 0 
1 0.3 0 
0 0.35 0 
0.05 0.35 0 
0.1 0.35 0 
0.15 0.35 0 
0.2 0.35 0 
0.25 0.35 0 
0.3 0.35 0 
0.35 0.35 0 
0.4 0.35 0 
0.45 0.35 0 
0.5 0.35 0 
0.55 0.35 0 
0.6 0.35 0 
0.65 0.35 0 
0.7 0.35 0 
0.75 0.35 0 
0.8 0.35 0 
0.85 0.35 0 
0.9 0.35 0 
0.95 0.35 0 
1 0.35 0 
0 0.4 0 
0.05 0.4 0 
0.1 0.4 0 
0.15 0.4 0 
0.2 0.4 0 
0.25 0.4 0 
0.3 0.4 0 
0.35 0.4 0 
0.4 0.4 0 
0.45 0.4 0 
0.5 0.4 0 
0.55 0.4 0 
0.6 0.4 0 
0.65 0.4 0 
0.7 0.4 0 
0.75 0.4 0 
0.8 0.4 0 
0.85 0.4 0 
0.9 0.4 0 
0.95 0.4 0 
1 0.4 0 
0 0.45 0 
0.05 0.45 0 
0.1 0.45 0 
0.15 0.45 0 
0.2 0.45 0 
0.25 0.45 0 
0.3 0.45 0 
0.35 0.45 0 
0.4 0.45 0 
0.45 0.45 0 
0.5 0.45 0 
0.55 0.45 0 
0.6 0.45 0 
0.65 0.45 0 
0.7 0.45 0 
0.75 0.45 0 
0.8 0.45 0 
0.85 0.45 0 
0.9 0.45 0 
0.95 0.45 0 
1 0.45 0 
0 0.5 0 
0.05 0.5 0 
0.1 0.5 0 
0.15 0.5 0 
0.2 0.5 0 
0.25 0.5 0 
0.3 0.5 0 
0.35 0.5 0 
0.4 0.5 0 
0.45 0.5 0 
0.5 0.5 0 
0.55 0.5 0 
0.6 0.5 0 
0.65 0.5 0 
0.7 0.5 0 
0.75 0.5 0 
0.8 0.5 0 
0.85 0.5 0 
0.9 0.5 0 
0.95 0.5 0 
1 0.5 0 
0 0.55 0 
0.05 0.55 0 
0.1 0.55 0 
0.15 0.55 0 
0.2 0.55 0 
0.25 0.55 0 
0.3 0.55 0 
0.35 0.55 0 
0.4 0.55 0 
0.45 0.55 0 
0.5 0.55 0 
0.55 0.55 0 
0.6 0.55 0 
0.65 0.55 0 
0.7 0.55 0 
0.75 0.55 0 
0.8 0.55 0 
0.85 0.55 0 
0.9 0.55 0 
0.95 0.55 0 
1 0.55 0 
0 0.6 0 
0.05 0.6 0 
0.1 0.6 0 
0.15 0.6 0 
0.2 0.6 0 
0.25 0.6 0 
0.3 0.6 0 
0.35 0.6 0 
0.4 0.6 0 
0.45 0.6 0 
0.5 0.6 0 
0.55 0.6 0 
0.6 0.6 0 
0.65 0.6 0 
0.7 0.6 0 
0.75 0.6 0 
0.8 0.6 0 
0.85 0.6 0 
0.9 0.6 0 
0.95 0.6 0 
1 0.6 0 
0 0.65 0 
0.05 0.65 0 
0.1 0.65 0 
0.15 0.65 0 
0.2 0.65 0 
0.25 0.65 0 
0.3 0.65 0 
0.35 0.65 0 
0.4 0.65 0 
0.45 0.65 0 
0.5 0.65 0 
0.55 0.65 0 
0.6 0.65 0 
0.65 0.65 0 
0.7 0.65 0 
0.75 0.65 0 
0.8 0.65 0 
0.85 0.65 0 
0.9 0.65 0 
0.95 0.65 0 
1 0.65 0 
0 0.7 0 
0.05 0.7 0 
0.1 0.7 0 
0.15 0.7 0 
0.2 0.7 0 
0.25 0.7 0 
0.3 0.7 0 
0.35 0.7 0 
0.4 0.7 0 
0.45 0.7 0 
0.5 0.7 0 
0.55 0.7 0 
0.6 0.7 0 
0.65 0.7 0 
0.7 0.7 0 
0.75 0.7 0 
0.8 0.7 0 
0.85 0.7 0 
0.9 0.7 0 
0.95 0.7 0 
1 0.7 0 
0 0.75 0 
0.05 0.75 0 
0.1 0.75 0 
0.15 0.75 0 
0.2 0.75 0 
0.25 0.75 0 
0.3 0.75 0 
0.35 0.75 0 
0.4 0.75 0 
0.45 0.75 0 
0.5 0.75 0 
0.55 0.75 0 
0.6 0.75 0 
0.65 0.75 0 
0.7 0.75 0 
0.75 0.75 0 
0.8 0.75 0 
0.85 0.75 0 
0.9 0.75 0 
0.95 0.75 0 
1 0.75 0 
0 0.8 0 
0.05 0.8 0 
0.1 0.8 0 
0.15 0.8 0 
0.2 0.8 0 
0.25 0.8 0 
0.3 0.8 0 
0.35 0.8 0 
0.4 0.8 0 
0.45 0.8 0 
0.5 0.8 0 
0.55 0.8 0 
0.6 0.8 0 
0.65 0.8 0 
0.7 0.8 0 
0.75 0.8 0 
0.8 0.8 0 
0.85 0.8 0 
0.9 0.8 0 
0.95 0.8 0 
1 0.8 0 
0 0.85 0 
0.05 0.85 0 
0.1 0.85 0 
0.15 0.85 0 
0.2 0.85 0 
0.25 0.85 0 
0.3 0.85 0 
0.35 0.85 0 
0.4 0.85 0 
0.45 0.85 0 
0.5 0.85 0 
0.55 0.85 0 
0.6 0.85 0 
0.65 0.85 0 
0.7 0.85 0 
0.75 0.85 0 
0.8 0.85 0 
0.85 0.85 0 
0.9 0.85 0 
0.95 0.85 0 
1 0.85 0 
0 0.9 0 
0.05 0.9 0 
0.1 0.9 0 
0.15 0.9 0 
0.2 0.9 0 
0.25 0.9 0 
0.3 0.9 0 
0.35 0.9 0 
0.4 0.9 0 
0.45 0.9 0 
0.5 0.9 0 
0.55 0.9 0 
0.6 0.9 0 
0.65 0.9 0 
0.7 0.9 0 
0.75 0.9 0 
0.8 0.9 0 
0.85 0.9 0 
0.9 0.9 0 
0.95 0.9 0 
1 0.9 0 
0 0.95 0 
0.05 0.95 0 
0.1 0.95 0 
0.15 0.95 0 
0.2 0.95 0 
0.25 0.95 0 
0.3 0.95 0 
0.35 0.95 0 
0.4 0.95 0 
0.45 0.95 0 
0.5 0.95 0 
0.55 0.95 0 
0.6 0.95 0 
0.65 0.95 0 
0.7 0.95 0 
0.75 0.95 0 
0.8 0.95 0 
0.85 0.95 0 
0.9 0.95 0 
0.95 0.95 0 
1 0.95 0 
0 1 0 
0.05 1 0 
0.1 1 0 
0.15 1 0 
0.2 1 0 
0.25 1 0 
0.3 1 0 
0.35 1 0 
0.4 1 0 
0.45 1 0 
0.5 1 0 
0.55 1 0 
0.6 1 0 
0.65 1 0 
0.7 1 0 
0.75 1 0 
0.8 1 0 
0.85 1 0 
0.9 1 0 
0.95 1 0 
1 1 0 
CELLS 400 2000
4 0 1 22 21 
4 1 2 23 22 
4 2 3 24 23 
4 3 4 25 24 
4 4 5 26 25 
4 5 6 27 26 
4 6 7 28 27 
4 7 8 29 28 
4 8 9 30 29 
4 9 10 31 30 
4 10 11 32 31 
4 11 12 33 32 
4 12 13 34 33 
4 13 14 35 34 
4 14 15 36 35 
4 15 16 37 36 
4 16 17 38 37 
4 17 18 39 38 
4 18 19 40 39 
4 19 20 41 40 
4 21 22 43 42 
4 22 23 44 43 
4 23 24 45 44 
4 24 25 46 45 
4 25 26 47 46 
4 26 27 48 47 
4 27 28 49 48 
4 28 29 50 49 
4 29 30 51 50 
4 30 31 52 51 
4 31 32 53 52 
4 32 33 54 53 
4 33 34 55 54 
4 34 35 56 55 
4 35 36 57 56 
4 36 37 58 57 
4 37 38 59 58 
4 38 39 60 59 
4 39 40 61 60 
4 40 41 62 61 
4 42 43 64 63 
4 43 44 65 64 
4 44 45 66 65 
4 45 46 67 66 
4 46 47 68 67 
4 47 48 69 68 
4 48 49 70 69 
4 49 50 71 70 
4 50 51 72 71 
4 51 52 73 72 
4 52 53 74 73 
4 53 54 75 74 
4 54 55 76 75 
4 55 56 77 76 
4 56 57 78 77 
4 57 58 79 78 
4 58 59 80 79 
4 59 60 81 80 
4 60 61 82 81 
4 61 62 83 82 
4 63 64 85 84 
4 64 65 86 85 
4 65 66 87 86 
4 66 67 88 87 
4 67 68 89 88 
4 68 69 90 89 
4 69 70 91 90 
4 70 71 92 91 
4 71 72 93 92 
4 72 73 94 93 
4 73 74 95 94 
4 74 75 96 95 
4 75 76 97 96 
4 76 77 98 97 
4 77 78 99 98 
4 78 79 100 99 
4 79 80 101 100 
4 80 81 102 101 
4 81 82 103 102 
4 82 83 104 103 
4 84 85 106 105 
4 85 86 107 106 
4 86 87 108 107 
4 87 88 109 108 
4 88 89 110 109 
4 89 90 111 110 
4 90 91 112 111 
4 91 92 113 112 
4 92 93 114 113 
4 93 94 115 114 
4 94 95 116 115 
4 95 96 117 116 
4 96 97 118 117 
4 97 98 119 118 
4 98 99 120 119 
4 99 100 121 120 
4 100 101 122 121 
4 101 102 123 122 
4 102 103 124 123 
4 103 104 125 124 
4 105 106 127 126 
4 106 107 128 127 
4 107 108 129 128 
4 108 109 130 129 
4 109 110 131 130 
4 110 111 132 131 
4 111 112 133 132 
4 112 113 134 133 
4 113 114 135 134 
4 114 115 136 135 
4 115 116 137 136 
4 116 117 138 137 
4 117 118 139 138 
4 118 119 140 139 
4 119 120 141 140 
4 120 121 142 141 
4 121 122 143 142 
4 122 123 144 143 
4 123 124 145 144 
4 124 125 146 145 
4 126 127 148 147 
4 127 128 149 148 
4 128 129 150 149 
4 129 130 151 150 
4 130 131 152 151 
4 131 132 153 152 
4 132 133 154 153 
4 133 134 155 154 
4 134 135 156 155 
4 135 136 157 156 
4 136 137 158 157 
4 137 138 159 158 
4 138 139 160 159 
4 139 140 161 160 
4 140 141 162 161 
4 141 142 163 162 
4 142 143 164 163 
4 143 144 165 164 
4 144 145 166 165 
4 145 146 167 166 
4 147 148 169 168 
4 148 149 170 169 
4 149 150 171 170 
4 150 151 172 171 
4 151 152 173 172 
4 152 153 174 173 
4 153 154 175 174 
4 154 155 176 175 
4 155 156 177 176 
4 156 157 178 177 
4 157 158 179 178 
4 158 159 180 179 
4 159 160 181 180 
4 160 161 182 181 
4 161 162 183 182 
4 162 163 184 183 
4 163 164 185 184 
4 164 165 186 185 
4 165 166 187 186 
4 166 167 188 187 
4 168 169 190 189 
4 169 170 191 190 
4 170 171 192 191 
4 171 172 193 192 
4 172 173 194 193 
4 173 174 195 194 
4 174 175 196 195 
4 175 176 197 196 
4 176 177 198 197 
4 177 178 199 198 
4 178 179 200 199 
4 179 180 201 200 
4 180 181 202 201 
4 181 182 203 202 
4 182 183 204 203 
4 183 184 205 204 
4 184 185 206 205 
4 185 186 207 206 
4 186 187 208 207 
4 187 188 209 208 
4 189 190 211 210 
4 190 191 212 211 
4 191 192 213 212 
4 192 193 214 213 
4 193 194 215 214 
4 194 195 216 215 
4 195 196 217 216 
4 196 197 218 217 
4 197 198 219 218 
4 198 199 220 219 
4 199 200 221 220 
4 200 201 222 221 
4 201 202 223 222 
4 202 203 224 223 
4 203 204 225 224 
4 204 205 226 225 
4 205 206 227 226 
4 206 207 228 227 
4 207 208 229 228 
4 208 209 230 229 
4 210 211 232 231 
4 211 212 233 232 
4 212 213 234 233 
4 213 214 235 234 
4 214 215 236 235 
4 215 216 237 236 
4 216 217 238 237 
4 217 218 239 238 
4 218 219 240 239 
4 219 220 241 240 
4 220 221 242 241 
4 221 222 243 242 
4 222 223 244 243 
4 223 224 245 244 
4 224 225 246 245 
4 225 226 247 246 
4 226 227 248 247 
4 227 228 249 248 
4 228 229 250 249 
4 229 230 251 250 
4 231 232 253 252 
4 232 233 254 253 
4 233 234 255 254 
4 234 235 256 255 
4 235 236 257 256 
4 236 237 258 257 
4 237 238 259 258 
4 238 239 260 259 
4 239 240 261 260 
4 240 241 262 261 
4 241 242 263 262 
4 242 243 264 263 
4 243 244 265 264 
4 244 245 266 265 
4 245 246 267 266 
4 246 247 268 267 
4 247 248 269 268 
4 248 249 270 269 
4 249 250 271 270 
4 250 251 272 271 
4 252 253 274 273 
4 253 254 275 274 
4 254 255 276 275 
4 255 256 277 276 
4 256 257 278 277 
4 257 258 279 278 
4 258 259 280 279 
4 259 260 281 280 
4 260 261 282 281 
4 261 262 283 282 
4 262 263 284 283 
4 263 264 285 284 
4 264 265 286 285 
4 265 266 287 286 
4 266 267 288 287 
4 267 268 289 288 
4 268 269 290 289 
4 269 270 291 290 
4 270 271 292 291 
4 271 272 293 292 
4 273 274 295 294 
4 274 275 296 295 
4 275 276 297 296 
4 276 277 298 297 
4 277 278 299 298 
4 278 279 300 299 
4 279 280 301 300 
4 280 281 302 301 
4 281 282 303 302 
4 282 283 304 303 
4 283 284 305 304 
4 284 285 306 305 
4 285 286 307 306 
4 286 287 308 307 
4 287 288 309 308 
4 288 289 310 309 
4 289 290 311 310 
4 290 291 312 311 
4 291 292 313 312 
4 292 293 314 313 
4 294 295 316 315 
4 295 296 317 316 
4 296 297 318 317 
4 297 298 319 318 
4 298 299 320 319 
4 299 300 321 320 
4 300 301 322 321 
4 301 302 323 322 
4 302 303 324 323 
4 303 304 325 324 
4 304 305 326 325 
4 305 306 327 326 
4 306 307 328 327 
4 307 308 329 328 
4 308 309 330 329 
4 309 310 331 330 
4 310 311 332 331 
4 311 312 333 332 
4 312 313 334 333 
4 313 314 335 334 
4 315 316 337 336 
4 316 317 338 337 
4 317 318 339 338 
4 318 319 340 339 
4 319 320 341 340 
4 320 321 342 341 
4 321 322 343 342 
4 322 323 344 343 
4 323 324 345 344 
4 324 325 346 345 
4 325 326 347 346 
4 326 327 348 347 
4 327 328 349 348 
4 328 329 350 349 
4 329 330 351 350 
4 330 331 352 351 
4 331 332 353 352 
4 332 333 354 353 
4 333 334 355 354 
4 334 335 356 355 
4 336 337 358 357 
4 337 338 359 358 
4 338 339 360 359 
4 339 340 361 360 
4 340 341 362 361 
4 341 342 363 362 
4 342 343 364 363 
4 343 344 365 364 
4 344 345 366 365 
4 345 346 367 366 
4 346 347 368 367 
4 347 348 369 368 
4 348 349 370 369 
4 349 350 371 370 
4 350 351 372 371 
4 351 352 373 372 
4 352 353 374 373 
4 353 354 375 374 
4 354 355 376 375 
4 355 356 377 376 
4 357 358 379 378 
4 358 359 380 379 
4 359 360 381 380 
4 360 361 382 381 
4 361 362 383 382 
4 362 363 384 383 
4 363 364 385 384 
4 364 365 386 385 
4 365 366 387 386 
4 366 367 388 387 
4 367 368 389 388 
4 368 369 390 389 
4 369 370 391 390 
4 370 371 392 391 
4 371 372 393 392 
4 372 373 394 393 
4 373 374 395 394 
4 374 375 396 395 
4 375 376 397 396 
4 376 377 398 397 
4 378 379 400 399 
4 379 380 401 400 
4 380 381 402 401 
4 381 382 403 402 
4 382 383 404 403 
4 383 384 405 404 
4 384 385 406 405 
4 385 386 407 406 
4 386 387 408 407 
4 387 388 409 408 
4 388 389 410 409 
4 389 390 411 410 
4 390 391 412 411 
4 391 392 413 412 
4 392 393 414 413 
4 393 394 415 414 
4 394 395 416 415 
4 395 396 417 416 
4 396 397 418 417 
4 397 398 419 418 
4 399 400 421 420 
4 400 401 422 421 
4 401 402 423 422 
4 402 403 424 423 
4 403 404 425 424 
4 404 405 426 425 
4 405 406 427 426 
4 406 407 428 427 
4 407 408 429 428 
4 408 409 430 429 
4 409 410 431 430 
4 410 411 432 431 
4 411 412 433 432 
4 412 413 434 433 
4 413 414 435 434 
4 414 415 436 435 
4 415 416 437 436 
4 416 417 438 437 
4 417 418 439 438 
4 418 419 440 439 
CELL_TYPES 400
9
9
9
9
9
9
9
9
9
9
9
9
9
9
9
9
9
9
9
9
9
9
9
9
9
9
9
9
9
9
9
9
9
9
9
9
9
9
9
9
9
9
9
9
9
9
9
9
9
9
9
9
9
9
9
9
9
9
9
9
9
9
9
9
9
9
9
9
9
9
9
9
9
9
9
9
9
9
9
9
9
9
9
9
9
9
9
9
9
9
9
9
9
9
9
9
9
9
9
9
9
9
9
9
9
9
9
9
9
9
9
9
9
9
9
9
9
9
9
9
9
9
9
9
9
9
9
9
9
9
9
9
9
9
9
9
9
9
9
9
9
9
9
9
9
9
9
9
9
9
9
9
9
9
9
9
9
9
9
9
9
9
9
9
9
9
9
9
9
9
9
9
9
9
9
9
9
9
9
9
9
9
9
9
9
9
9
9
9
9
9
9
9
9
9
9
9
9
9
9
9
9
9
9
9
9
9
9
9
9
9
9
9
9
9
9
9
9
9
9
9
9
9
9
9
9
9
9
9
9
9
9
9
9
9
9
9
9
9
9
9
9
9
9
9
9
9
9
9
9
9
9
9
9
9
9
9
9
9
9
9
9
9
9
9
9
9
9
9
9
9
9
9
9
9
9
9
9
9
9
9
9
9
9
9
9
9
9
9
9
9
9
9
9
9
9
9
9
9
9
9
9
9
9
9
9
9
9
9
9
9
9
9
9
9
9
9
9
9
9
9
9
9
9
9
9
9
9
9
9
9
9
9
9
9
9
9
9
9
9
9
9
9
9
9
9
9
9
9
9
9
9
9
9
9
9
9
9
9
9
9
9
9
9
9
9
9
9
9
9
9
9
9
9
9
9
9
9
9
9
9
9
9
9
9
9
9
9
9
9
9
9
9
9
9
9
9
9
9
9
POINT_DATA 441
VECTORS disp float 
0 0 0 
0.0195432 0.0190381 0 
0.0348306 0.0298302 0 
0.0491235 0.0372682 0 
0.0631282 0.0427063 0 
0.0770988 0.0467674 0 
0.0911478 0.0498219 0 
0.105327 0.0521202 0 
0.119656 0.0538433 0 
0.134138 0.0551273 0 
0.148768 0.0560762 0 
0.163532 0.0567708 0 
0.178416 0.0572734 0 
0.193404 0.0576325 0 
0.20848 0.0578852 0 
0.223629 0.05806 0 
0.238837 0.0581783 0 
0.254089 0.0582558 0 
0.269375 0.0583038 0 
0.284682 0.0583298 0 
0.3 0.058338 0 
0 0 0 
0.0144293 0.013621 0 
0.0300908 0.0241291 0 
0.0452587 0.0316957 0 
0.0600619 0.0372286 0 
0.0746913 0.0413276 0 
0.0892704 0.0443812 0 
0.103872 0.0466558 0 
0.118536 0.0483436 0 
0.133282 0.0495876 0 
0.148118 0.0504965 0 
0.163043 0.0511532 0 
0.178051 0.0516218 0 
0.193135 0.0519512 0 
0.208284 0.0521788 0 
0.223488 0.052333 0 
0.238738 0.0524349 0 
0.254023 0.0525 0 
0.269334 0.0525394 0 
0.284663 0.0525602 0 
0.3 0.0525667 0 
0 0 0 
0.0130749 0.0103973 0 
0.0275849 0.019488 0 
0.042568 0.0265813 0 
0.0575808 0.0319424 0 
0.0725397 0.0359597 0 
0.0874619 0.0389574 0 
0.10238 0.0411833 0 
0.117323 0.0428251 0 
0.132306 0.0440257 0 
0.14734 0.0448943 0 
0.162429 0.0455149 0 
0.177571 0.0459518 0 
0.192764 0.046254 0 
0.208001 0.046459 0 
0.223276 0.0465947 0 
0.238583 0.046682 0 
0.253916 0.0467362 0 
0.269267 0.046768 0 
0.28463 0.0467844 0 
0.3 0.0467894 0 
0 0 0 
0.0125598 0.00822089 0 
0.0263361 0.0157695 0 
0.0408723 0.0220437 0 
0.0557598 0.0269826 0 
0.0707879 0.0307663 0 
0.0858738 0.0336196 0 
0.100992 0.0357458 0 
0.116137 0.0373126 0 
0.131313 0.0384537 0 
0.14652 0.0392741 0 
0.161761 0.039855 0 
0.177034 0.0402594 0 
0.192337 0.0405352 0 
0.207666 0.040719 0 
0.22302 0.0408381 0 
0.238393 0.0409128 0 
0.253781 0.0409576 0 
0.269181 0.040983 0 
0.284589 0.0409956 0 
0.3 0.0409994 0 
0 0 0 
0.0123191 0.00656312 0 
0.0256695 0.0127197 0 
0.0398196 0.0180454 0 
0.0544818 0.0223905 0 
0.0694395 0.0258031 0 
0.0845628 0.028416 0 
0.0997813 0.0303791 0 
0.115059 0.0318304 0 
0.130376 0.032887 0 
0.145724 0.033644 0 
0.161095 0.034177 0 
0.176486 0.034545 0 
0.191893 0.0347932 0 
0.207314 0.0349561 0 
0.222745 0.0350597 0 
0.238186 0.035123 0 
0.253634 0.0351598 0 
0.269086 0.0351799 0 
0.284542 0.0351896 0 
0.3 0.0351924 0 
0 0 0 
0.0121933 0.005194 0 
0.0252886 0.010118 0 
0.0391557 0.0144836 0 
0.0535994 0.0181429 0 
0.0684362 0.0210823 0 
0.0835273 0.0233695 0 
0.0987788 0.0251058 0 
0.114131 0.0263969 0 
0.129545 0.0273389 0 
0.144999 0.0280133 0 
0.160476 0.0284867 0 
0.175967 0.0288116 0 
0.191466 0.0290291 0 
0.20697 0.0291702 0 
0.222475 0.0292585 0 
0.237981 0.0293113 0 
0.253486 0.0293412 0 
0.268991 0.0293569 0 
0.284496 0.0293641 0 
0.3 0.0293662 0 
0 0 0 
0.0121234 0.00400068 0 
0.0250604 0.00781549 0 
0.0387298 0.01125 0 
0.0529954 0.0141846 0 
0.0677089 0.0165847 0 
0.0827397 0.0184797 0 
0.0979858 0.0199334 0 
0.113373 0.0210216 0 
0.128849 0.0218183 0 
0.144378 0.0223894 0 
0.159936 0.0227897 0 
0.175508 0.0230636 0 
0.191085 0.0232458 0 
0.206659 0.0233632 0 
0.222229 0.0234357 0 
0.237792 0.0234784 0 
0.25335 0.023502 0 
0.268903 0.023514 0 
0.284452 0.0235193 0 
0.3 0.0235208 0 
0 0 0 
0.0120834 0.00291974 0 
0.0249208 0.00571333 0 
0.0384564 0.00825284 0 
0.0525893 0.0104512 0 
0.0671988 0.0122735 0 
0.0821667 0.0137291 0 
0.0973908 0.0148558 0 
0.11279 0.0157046 0 
0.128301 0.0163286 0 
0.143881 0.0167766 0 
0.159499 0.0170906 0 
0.175132 0.0173051 0 
0.190768 0.0174473 0 
0.206399 0.0175384 0 
0.222021 0.0175943 0 
0.237633 0.0176267 0 
0.253235 0.0176443 0 
0.268828 0.0176531 0 
0.284416 0.0176568 0 
0.3 0.0176579 0 
0 0 0 
0.0120608 0.00191083 0 
0.0248373 0.0037428 0 
0.0382868 0.00541803 0 
0.0523294 0.00688049 0 
0.0668626 0.0081038 0 
0.081779 0.00908913 0 
0.096979 0.00985708 0 
0.112378 0.0104385 0 
0.127909 0.0108674 0 
0.143521 0.0111759 0 
0.159177 0.0113922 0 
0.174853 0.0115399 0 
0.190532 0.0116376 0 
0.206204 0.0117 0 
0.221865 0.011738 0 
0.237512 0.0117599 0 
0.253147 0.0117717 0 
0.268771 0.0117774 0 
0.284387 0.0117798 0 
0.3 0.0117805 0 
0 0 0 
0.0120493 0.00094522 0 
0.0247926 0.0018524 0 
0.0381942 0.00268464 0 
0.0521845 0.0034146 0 
0.0666716 0.0040284 0 
0.081555 0.00452526 0 
0.0967376 0.00491413 0 
0.112134 0.00520952 0 
0.127674 0.00542787 0 
0.143303 0.00558513 0 
0.158982 0.00569549 0 
0.174682 0.0057708 0 
0.190387 0.00582059 0 
0.206084 0.00585231 0 
0.221768 0.00587159 0 
0.237437 0.00588266 0 
0.253092 0.00588855 0 
0.268735 0.00589139 0 
0.28437 0.00589258 0 
0.3 0.00589289 0 
0 0 0 
0.0120458 -1.49755e-18 0 
0.0247786 -5.18543e-18 0 
0.0381647 -3.8828e-18 0 
0.0521379 -5.31598e-18 0 
0.0666097 -4.36391e-18 0 
0.0814818 -1.51873e-18 0 
0.096658 7.21333e-18 0 
0.112053 1.55854e-17 0 
0.127595 2.13181e-17 0 
0.14323 3.44522e-17 0 
0.158916 5.72188e-17 0 
0.174625 7.28889e-17 0 
0.190338 7.74256e-17 0 
0.206043 8.84269e-17 0 
0.221735 8.76374e-17 0 
0.237412 1.03033e-16 0 
0.253074 1.19135e-16 0 
0.268723 1.44506e-16 0 
0.284364 1.59649e-16 0 
0.3 1.57426e-16 0 
0 0 0 
0.0120493 -0.00094522 0 
0.0247926 -0.0018524 0 
0.0381942 -0.00268464 0 
0.0521845 -0.0034146 0 
0.0666716 -0.0040284 0 
0.081555 -0.00452526 0 
0.0967376 -0.00491413 0 
0.112134 -0.00520952 0 
0.127674 -0.00542787 0 
0.143303 -0.00558513 0 
0.158982 -0.00569549 0 
0.174682 -0.0057708 0 
0.190387 -0.00582059 0 
0.206084 -0.00585231 0 
0.221768 -0.00587159 0 
0.237437 -0.00588266 0 
0.253092 -0.00588855 0 
0.268735 -0.00589139 0 
0.28437 -0.00589258 0 
0.3 -0.00589289 0 
0 0 0 
0.0120608 -0.00191083 0 
0.0248373 -0.0037428 0 
0.0382868 -0.00541803 0 
0.0523294 -0.00688049 0 
0.0668626 -0.0081038 0 
0.081779 -0.00908913 0 
0.096979 -0.00985708 0 
0.112378 -0.0104385 0 
0.127909 -0.0108674 0 
0.143521 -0.0111759 0 
0.159177 -0.0113922 0 
0.174853 -0.0115399 0 
0.190532 -0.0116376 0 
0.206204 -0.0117 0 
0.221865 -0.011738 0 
0.237512 -0.0117599 0 
0.253147 -0.0117717 0 
0.268771 -0.0117774 0 
0.284387 -0.0117798 0 
0.3 -0.0117805 0 
0 0 0 
0.0120834 -0.00291974 0 
0.0249208 -0.00571333 0 
0.0384564 -0.00825284 0 
0.0525893 -0.0104512 0 
0.0671988 -0.0122735 0 
0.0821667 -0.0137291 0 
0.0973908 -0.0148558 0 
0.11279 -0.0157046 0 
0.128301 -0.0163286 0 
0.143881 -0.0167766 0 
0.159499 -0.0170906 0 
0.175132 -0.0173051 0 
0.190768 -0.0174473 0 
0.206399 -0.0175384 0 
0.222021 -0.0175943 0 
0.237633 -0.0176267 0 
0.253235 -0.0176443 0 
0.268828 -0.0176531 0 
0.284416 -0.0176568 0 
0.3 -0.0176579 0 
0 0 0 
0.0121234 -0.00400068 0 
0.0250604 -0.00781549 0 
0.0387298 -0.01125 0 
0.0529954 -0.0141846 0 
0.0677089 -0.0165847 0 
0.0827397 -0.0184797 0 
0.0979858 -0.0199334 0 
0.113373 -0.0210216 0 
0.128849 -0.0218183 0 
0.144378 -0.0223894 0 
0.159936 -0.0227897 0 
0.175508 -0.0230636 0 
0.191085 -0.0232458 0 
0.206659 -0.0233632 0 
0.222229 -0.0234357 0 
0.237792 -0.0234784 0 
0.25335 -0.023502 0 
0.268903 -0.023514 0 
0.284452 -0.0235193 0 
0.3 -0.0235208 0 
0 0 0 
0.0121933 -0.005194 0 
0.0252886 -0.010118 0 
0.0391557 -0.0144836 0 
0.0535994 -0.0181429 0 
0.0684362 -0.0210823 0 
0.0835273 -0.0233695 0 
0.0987788 -0.0251058 0 
0.114131 -0.0263969 0 
0.129545 -0.0273389 0 
0.144999 -0.0280133 0 
0.160476 -0.0284867 0 
0.175967 -0.0288116 0 
0.191466 -0.0290291 0 
0.20697 -0.0291702 0 
0.222475 -0.0292585 0 
0.237981 -0.0293113 0 
0.253486 -0.0293412 0 
0.268991 -0.0293569 0 
0.284496 -0.0293641 0 
0.3 -0.0293662 0 
0 0 0 
0.0123191 -0.00656312 0 
0.0256695 -0.0127197 0 
0.0398196 -0.0180454 0 
0.0544818 -0.0223905 0 
0.0694395 -0.0258031 0 
0.0845628 -0.028416 0 
0.0997813 -0.0303791 0 
0.115059 -0.0318304 0 
0.130376 -0.032887 0 
0.145724 -0.033644 0 
0.161095 -0.034177 0 
0.176486 -0.034545 0 
0.191893 -0.0347932 0 
0.207314 -0.0349561 0 
0.222745 -0.0350597 0 
0.238186 -0.035123 0 
0.253634 -0.0351598 0 
0.269086 -0.0351799 0 
0.284542 -0.0351896 0 
0.3 -0.0351924 0 
0 0 0 
0.0125598 -0.00822089 0 
0.0263361 -0.0157695 0 
0.0408723 -0.0220437 0 
0.0557598 -0.0269826 0 
0.0707879 -0.0307663 0 
0.0858738 -0.0336196 0 
0.100992 -0.0357458 0 
0.116137 -0.0373126 0 
0.131313 -0.0384537 0 
0.14652 -0.0392741 0 
0.161761 -0.039855 0 
0.177034 -0.0402594 0 
0.192337 -0.0405352 0 
0.207666 -0.040719 0 
0.22302 -0.0408381 0 
0.238393 -0.0409128 0 
0.253781 -0.0409576 0 
0.269181 -0.040983 0 
0.284589 -0.0409956 0 
0.3 -0.0409994 0 
0 0 0 
0.0130749 -0.0103973 0 
0.0275849 -0.019488 0 
0.042568 -0.0265813 0 
0.0575808 -0.0319424 0 
0.0725397 -0.0359597 0 
0.0874619 -0.0389574 0 
0.10238 -0.0411833 0 
0.117323 -0.0428251 0 
0.132306 -0.0440257 0 
0.14734 -0.0448943 0 
0.162429 -0.0455149 0 
0.177571 -0.0459518 0 
0.192764 -0.046254 0 
0.208001 -0.046459 0 
0.223276 -0.0465947 0 
0.238583 -0.046682 0 
0.253916 -0.0467362 0 
0.269267 -0.046768 0 
0.28463 -0.0467844 0 
0.3 -0.0467894 0 
0 0 0 
0.0144293 -0.013621 0 
0.0300908 -0.0241291 0 
0.0452587 -0.0316957 0 
0.0600619 -0.0372286 0 
0.0746913 -0.0413276 0 
0.0892704 -0.0443812 0 
0.103872 -0.0466558 0 
0.118536 -0.0483436 0 
0.133282 -0.0495876 0 
0.148118 -0.0504965 0 
0.163043 -0.0511532 0 
0.178051 -0.0516218 0 
0.193135 -0.0519512 0 
0.208284 -0.0521788 0 
0.223488 -0.052333 0 
0.238738 -0.0524349 0 
0.254023 -0.0525 0 
0.269334 -0.0525394 0 
0.284663 -0.0525602 0 
0.3 -0.0525667 0 
0 0 0 
0.0195432 -0.0190381 0 
0.0348306 -0.0298302 0 
0.0491235 -0.0372682 0 
0.0631282 -0.0427063 0 
0.0770988 -0.0467674 0 
0.0911478 -0.0498219 0 
0.105327 -0.0521202 0 
0.119656 -0.0538433 0 
0.134138 -0.0551273 0 
0.148768 -0.0560762 0 
0.163532 -0.0567708 0 
0.178416 -0.0572734 0 
0.193404 -0.0576325 0 
0.20848 -0.0578852 0 
0.223629 -0.05806 0 
0.238837 -0.0581783 0 
0.254089 -0.0582558 0 
0.269375 -0.0583038 0 
0.284682 -0.0583298 0 
0.3 -0.058338 0 
CELL_DATA 400
TENSORS sigma float 
349.407 120.887 0 120.887 59.1861 0 0 0 92.414 
318.045 61.7338 0 61.7338 19.1661 0 0 0 78.9236 
300.584 38.4178 0 38.4178 9.00517 0 0 0 73.4986 
292.558 26.1006 0 26.1006 5.00997 0 0 0 71.0604 
289.519 18.4481 0 18.4481 3.04043 0 0 0 69.9887 
289.137 13.2598 0 13.2598 1.94047 0 0 0 69.6133 
290.177 9.57132 0 9.57132 1.27631 0 0 0 69.6087 
291.94 6.8832 0 6.8832 0.852857 0 0 0 69.7992 
294.014 4.90267 0 4.90267 0.571717 0 0 0 70.0847 
296.149 3.44106 0 3.44106 0.379253 0 0 0 70.4058 
298.198 2.3678 0 2.3678 0.244465 0 0 0 70.7276 
300.076 1.58798 0 1.58798 0.148571 0 0 0 71.0299 
301.738 1.03028 0 1.03028 0.0797056 0 0 0 71.3019 
303.168 0.640127 0 0.640127 0.0300833 0 0 0 71.5383 
304.364 0.375336 0 0.375336 -0.00557867 0 0 0 71.7375 
305.333 0.203135 0 0.203135 -0.0309589 0 0 0 71.8998 
306.087 0.0979596 0 0.0979596 -0.0486572 0 0 0 72.0268 
306.64 0.0396988 0 0.0396988 -0.060506 0 0 0 72.12 
307.001 0.0122399 0 0.0122399 -0.0677573 0 0 0 72.1811 
307.18 0.00220237 0 0.00220237 -0.0711943 0 0 0 72.2114 
297.777 91.6456 0 91.6456 91.1556 0 0 0 97.8618 
310.22 70.5623 0 70.5623 42.2909 0 0 0 85.3195 
307.135 46.8305 0 46.8305 21.7228 0 0 0 79.0029 
302.524 31.1009 0 31.1009 12.4991 0 0 0 75.5201 
299.417 20.9023 0 20.9023 7.79981 0 0 0 73.536 
297.923 14.097 0 14.097 5.12966 0 0 0 72.4121 
297.62 9.43968 0 9.43968 3.48236 0 0 0 71.8042 
298.091 6.20628 0 6.20628 2.40264 0 0 0 71.5117 
299.018 3.95253 0 3.95253 1.66337 0 0 0 71.4115 
300.174 2.38999 0 2.38999 1.14171 0 0 0 71.426 
301.404 1.32234 0 1.32234 0.766449 0 0 0 71.5052 
302.608 0.611261 0 0.611261 0.493658 0 0 0 71.6165 
303.724 0.157022 0 0.157022 0.294662 0 0 0 71.7393 
304.717 -0.113179 0 -0.113179 0.14983 0 0 0 71.8601 
305.569 -0.252764 0 -0.252764 0.0452142 0 0 0 71.971 
306.273 -0.300927 0 -0.300927 -0.029325 0 0 0 72.067 
306.828 -0.286355 0 -0.286355 -0.0812186 0 0 0 72.1453 
307.24 -0.230049 0 -0.230049 -0.115851 0 0 0 72.2047 
307.511 -0.147537 0 -0.147537 -0.136972 0 0 0 72.2445 
307.645 -0.0506954 0 -0.0506954 -0.146957 0 0 0 72.2644 
281.139 71.8272 0 71.8272 93.9538 0 0 0 97.5549 
296.749 62.8052 0 62.8052 58.6985 0 0 0 89.3609 
303.485 47.2527 0 47.2527 35.1048 0 0 0 83.2726 
304.66 33.2307 0 33.2307 21.6238 0 0 0 79.2503 
304.08 22.668 0 22.668 13.8797 0 0 0 76.6319 
303.36 15.1189 0 15.1189 9.2135 0 0 0 74.9272 
302.984 9.81439 0 9.81439 6.25044 0 0 0 73.8215 
303.003 6.12168 0 6.12168 4.2825 0 0 0 73.1136 
303.334 3.57978 0 3.57978 2.93006 0 0 0 72.672 
303.867 1.86039 0 1.86039 1.97846 0 0 0 72.4089 
304.508 0.728764 0 0.728764 1.29926 0 0 0 72.2643 
305.183 0.0157569 0 0.0157569 0.811254 0 0 0 72.1971 
305.839 -0.401228 0 -0.401228 0.46049 0 0 0 72.1785 
306.443 -0.61112 0 -0.61112 0.209571 0 0 0 72.1888 
306.974 -0.678195 0 -0.678195 0.0317759 0 0 0 72.2143 
307.421 -0.648551 0 -0.648551 -0.0923368 0 0 0 72.2456 
307.779 -0.554918 0 -0.554918 -0.176969 0 0 0 72.2763 
308.047 -0.420312 0 -0.420312 -0.232356 0 0 0 72.3023 
308.225 -0.260907 0 -0.260907 -0.265584 0 0 0 72.3209 
308.313 -0.0883383 0 -0.0883383 -0.28112 0 0 0 72.3306 
274.002 57.2271 0 57.2271 93.4059 0 0 0 97.1554 
288.201 52.6349 0 52.6349 66.6855 0 0 0 91.2865 
297.915 42.8647 0 42.8647 45.0307 0 0 0 86.1116 
302.998 32.1001 0 32.1001 30.0207 0 0 0 82.1204 
305.206 22.7563 0 22.7563 20.1627 0 0 0 79.1997 
306.052 15.4581 0 15.4581 13.6977 0 0 0 77.1057 
306.377 10.0525 0 10.0525 9.37804 0 0 0 75.6183 
306.567 6.1782 0 6.1782 6.42559 0 0 0 74.569 
306.766 3.47568 0 3.47568 4.36777 0 0 0 73.8349 
307.011 1.64469 0 1.64469 2.91362 0 0 0 73.3274 
307.297 0.450145 0 0.450145 1.87829 0 0 0 72.982 
307.601 -0.28672 0 -0.28672 1.13982 0 0 0 72.7521 
307.904 -0.699458 0 -0.699458 0.614776 0 0 0 72.6033 
308.189 -0.886474 0 -0.886474 0.244292 0 0 0 72.5107 
308.444 -0.919273 0 -0.919273 -0.014078 0 0 0 72.4561 
308.662 -0.849027 0 -0.849027 -0.191293 0 0 0 72.4262 
308.838 -0.71175 0 -0.71175 -0.309927 0 0 0 72.4117 
308.971 -0.532384 0 -0.532384 -0.386183 0 0 0 72.4058 
309.059 -0.328049 0 -0.328049 -0.431226 0 0 0 72.4041 
309.103 -0.11069 0 -0.11069 -0.45206 0 0 0 72.4039 
270.491 45.5624 0 45.5624 92.6626 0 0 0 96.9867 
283.067 42.8892 0 42.8892 70.8731 0 0 0 92.3483 
293.281 36.5994 0 36.5994 51.674 0 0 0 87.9505 
300.274 28.7752 0 28.7752 36.6998 0 0 0 84.2095 
304.522 21.2154 0 21.2154 25.7759 0 0 0 81.2189 
306.924 14.8149 0 14.8149 18.019 0 0 0 78.9076 
308.23 9.79898 0 9.79898 12.5406 0 0 0 77.1553 
308.931 6.06505 0 6.06505 8.65755 0 0 0 75.8433 
309.312 3.39593 0 3.39593 5.89064 0 0 0 74.8706 
309.526 1.5609 0 1.5609 3.91216 0 0 0 74.1562 
309.654 0.355257 0 0.355257 2.4972 0 0 0 73.6368 
309.737 -0.388489 0 -0.388489 1.48877 0 0 0 73.2633 
309.794 -0.801221 0 -0.801221 0.775165 0 0 0 72.9983 
309.837 -0.982052 0 -0.982052 0.275503 0 0 0 72.813 
309.87 -1.00417 0 -1.00417 -0.069445 0 0 0 72.6856 
309.894 -0.920392 0 -0.920392 -0.30322 0 0 0 72.5999 
309.913 -0.768003 0 -0.768003 -0.457657 0 0 0 72.5438 
309.927 -0.572782 0 -0.572782 -0.555599 0 0 0 72.5085 
309.935 -0.352323 0 -0.352323 -0.612759 0 0 0 72.4881 
309.939 -0.118783 0 -0.118783 -0.638973 0 0 0 72.4788 
268.621 35.646 0 35.646 92.0865 0 0 0 96.9518 
279.928 33.9574 0 33.9574 73.2942 0 0 0 93.0183 
289.903 29.8027 0 29.8027 56.0755 0 0 0 89.169 
297.683 24.2485 0 24.2485 41.6719 0 0 0 85.6985 
303.184 18.4663 0 18.4663 30.3597 0 0 0 82.7479 
306.802 13.2471 0 13.2471 21.7995 0 0 0 80.3356 
309.049 8.94728 0 8.94728 15.448 0 0 0 78.4145 
310.368 5.62522 0 5.62522 10.7828 0 0 0 76.9126 
311.088 3.18588 0 3.18588 7.37705 0 0 0 75.7551 
311.43 1.47646 0 1.47646 4.9043 0 0 0 74.8735 
311.543 0.338068 0 0.338068 3.12066 0 0 0 74.2094 
311.521 -0.371008 0 -0.371008 1.84498 0 0 0 73.7145 
311.426 -0.76742 0 -0.76742 0.94242 0 0 0 73.3497 
311.298 -0.942447 0 -0.942447 0.312367 0 0 0 73.0841 
311.163 -0.964912 0 -0.964912 -0.120309 0 0 0 72.8932 
311.035 -0.88515 0 -0.88515 -0.411476 0 0 0 72.7585 
310.925 -0.738987 0 -0.738987 -0.602232 0 0 0 72.6657 
310.839 -0.551319 0 -0.551319 -0.722142 0 0 0 72.6045 
310.78 -0.339182 0 -0.339182 -0.791553 0 0 0 72.5674 
310.75 -0.114361 0 -0.114361 -0.823197 0 0 0 72.55 
267.578 26.832 0 26.832 91.681 0 0 0 96.975 
277.975 25.7319 0 25.7319 74.7871 0 0 0 93.4701 
287.56 22.9769 0 22.9769 59.0002 0 0 0 89.9901 
295.601 19.1347 0 19.1347 45.2317 0 0 0 86.7434 
301.805 14.9304 0 14.9304 33.8694 0 0 0 83.8673 
306.264 10.9524 0 10.9524 24.8583 0 0 0 81.4193 
309.27 7.5418 0 7.5418 17.904 0 0 0 79.3975 
311.164 4.82178 0 4.82178 12.638 0 0 0 77.7656 
312.257 2.77505 0 2.77505 8.70748 0 0 0 76.4723 
312.798 1.31373 0 1.31373 5.81002 0 0 0 75.4625 
312.977 0.326279 0 0.326279 3.69968 0 0 0 74.6843 
312.929 -0.296399 0 -0.296399 2.18203 0 0 0 74.0917 
312.753 -0.649004 0 -0.649004 1.10583 0 0 0 73.6456 
312.515 -0.80814 0 -0.80814 0.354685 0 0 0 73.3137 
312.26 -0.83283 0 -0.83283 -0.160081 0 0 0 73.0703 
312.018 -0.766867 0 -0.766867 -0.50526 0 0 0 72.8947 
311.809 -0.641734 0 -0.641734 -0.73035 0 0 0 72.7713 