# vtk DataFile Version 2.0
Generated by inSilico's base::io::vtk::LegacyWriter
ASCII
DATASET UNSTRUCTURED_GRID
POINTS 441 float
0 0 0 
0.05 0 0 
0.1 0 0 
0.15 0 0 
0.2 0 0 
0.25 0 0 
0.3 0 0 
0.35 0 0 
0.4 0 0 
0.45 0 0 
0.5 0 0 
0.55 0 0 
0.6 0 0 
0.65 0 0 
0.7 0 0 
0.75 0 0 
0.8 0 0 
0.85 0 0 
0.9 0 0 
0.95 0 0 
1 0 0 
0 0.05 0 
0.05 0.05 0 
0.1 0.05 0 
0.15 0.05 0 
0.2 0.05 0 
0.25 0.05 0 
0.3 0.05 0 
0.35 0.05 0 
0.4 0.05 0 
0.45 0.05 0 
0.5 0.05 0 
0.55 0.05 0 
0.6 0.05 0 
0.65 0.05 0 
0.7 0.05 0 
0.75 0.05 0 
0.8 0.05 0 
0.85 0.05 0 
0.9 0.05 0 
0.95 0.05 0 
1 0.05 0 
0 0.1 0 
0.05 0.1 0 
0.1 0.1 0 
0.15 0.1 0 
0.2 0.1 0 
0.25 0.1 0 
0.3 0.1 0 
0.35 0.1 0 
0.4 0.1 0 
0.45 0.1 0 
0.5 0.1 0 
0.55 0.1 0 
0.6 0.1 0 
0.65 0.1 0 
0.7 0.1 0 
0.75 0.1 0 
0.8 0.1 0 
0.85 0.1 0 
0.9 0.1 0 
0.95 0.1 0 
1 0.1 0 
0 0.15 0 
0.05 0.15 0 
0.1 0.15 0 
0.15 0.15 0 
0.2 0.15 0 
0.25 0.15 0 
0.3 0.15 0 
0.35 0.15 0 
0.4 0.15 0 
0.45 0.15 0 
0.5 0.15 0 
0.55 0.15 0 
0.6 0.15 0 
0.65 0.15 0 
0.7 0.15 0 
0.75 0.15 0 
0.8 0.15 0 
0.85 0.15 0 
0.9 0.15 0 
0.95 0.15 0 
1 0.15 0 
0 0.2 0 
0.05 0.2 0 
0.1 0.2 0 
0.15 0.2 0 
0.2 0.2 0 
0.25 0.2 0 
0.3 0.2 0 
0.35 0.2 0 
0.4 0.2 0 
0.45 0.2 0 
0.5 0.2 0 
0.55 0.2 0 
0.6 0.2 0 
0.65 0.2 0 
0.7 0.2 0 
0.75 0.2 0 
0.8 0.2 0 
0.85 0.2 0 
0.9 0.2 0 
0.95 0.2 0 
1 0.2 0 
0 0.25 0 
0.05 0.25 0 
0.1 0.25 0 
0.15 0.25 0 
0.2 0.25 0 
0.25 0.25 0 
0.3 0.25 0 
0.35 0.25 0 
0.4 0.25 0 
0.45 0.25 0 
0.5 0.25 0 
0.55 0.25 0 
0.6 0.25 0 
0.65 0.25 0 
0.7 0.25 0 
0.75 0.25 0 
0.8 0.25 0 
0.85 0.25 0 
0.9 0.25 0 
0.95 0.25 0 
1 0.25 0 
0 0.3 0 
0.05 0.3 0 
0.1 0.3 0 
0.15 0.3 0 
0.2 0.3 0 
0.25 0.3 0 
0.3 0.3 0 
0.35 0.3 0 
0.4 0.3 0 
0.45 0.3 0 
0.5 0.3 0 
0.55 0.3 0 
0.6 0.3 0 
0.65 0.3 0 
0.7 0.3 0 
0.75 0.3 0 
0.8 0.3 0 
0.85 0.3 0 
0.9 0.3 0 
0.95 0.3 0 
1 0.3 0 
0 0.35 0 
0.05 0.35 0 
0.1 0.35 0 
0.15 0.35 0 
0.2 0.35 0 
0.25 0.35 0 
0.3 0.35 0 
0.35 0.35 0 
0.4 0.35 0 
0.45 0.35 0 
0.5 0.35 0 
0.55 0.35 0 
0.6 0.35 0 
0.65 0.35 0 
0.7 0.35 0 
0.75 0.35 0 
0.8 0.35 0 
0.85 0.35 0 
0.9 0.35 0 
0.95 0.35 0 
1 0.35 0 
0 0.4 0 
0.05 0.4 0 
0.1 0.4 0 
0.15 0.4 0 
0.2 0.4 0 
0.25 0.4 0 
0.3 0.4 0 
0.35 0.4 0 
0.4 0.4 0 
0.45 0.4 0 
0.5 0.4 0 
0.55 0.4 0 
0.6 0.4 0 
0.65 0.4 0 
0.7 0.4 0 
0.75 0.4 0 
0.8 0.4 0 
0.85 0.4 0 
0.9 0.4 0 
0.95 0.4 0 
1 0.4 0 
0 0.45 0 
0.05 0.45 0 
0.1 0.45 0 
0.15 0.45 0 
0.2 0.45 0 
0.25 0.45 0 
0.3 0.45 0 
0.35 0.45 0 
0.4 0.45 0 
0.45 0.45 0 
0.5 0.45 0 
0.55 0.45 0 
0.6 0.45 0 
0.65 0.45 0 
0.7 0.45 0 
0.75 0.45 0 
0.8 0.45 0 
0.85 0.45 0 
0.9 0.45 0 
0.95 0.45 0 
1 0.45 0 
0 0.5 0 
0.05 0.5 0 
0.1 0.5 0 
0.15 0.5 0 
0.2 0.5 0 
0.25 0.5 0 
0.3 0.5 0 
0.35 0.5 0 
0.4 0.5 0 
0.45 0.5 0 
0.5 0.5 0 
0.55 0.5 0 
0.6 0.5 0 
0.65 0.5 0 
0.7 0.5 0 
0.75 0.5 0 
0.8 0.5 0 
0.85 0.5 0 
0.9 0.5 0 
0.95 0.5 0 
1 0.5 0 
0 0.55 0 
0.05 0.55 0 
0.1 0.55 0 
0.15 0.55 0 
0.2 0.55 0 
0.25 0.55 0 
0.3 0.55 0 
0.35 0.55 0 
0.4 0.55 0 
0.45 0.55 0 
0.5 0.55 0 
0.55 0.55 0 
0.6 0.55 0 
0.65 0.55 0 
0.7 0.55 0 
0.75 0.55 0 
0.8 0.55 0 
0.85 0.55 0 
0.9 0.55 0 
0.95 0.55 0 
1 0.55 0 
0 0.6 0 
0.05 0.6 0 
0.1 0.6 0 
0.15 0.6 0 
0.2 0.6 0 
0.25 0.6 0 
0.3 0.6 0 
0.35 0.6 0 
0.4 0.6 0 
0.45 0.6 0 
0.5 0.6 0 
0.55 0.6 0 
0.6 0.6 0 
0.65 0.6 0 
0.7 0.6 0 
0.75 0.6 0 
0.8 0.6 0 
0.85 0.6 0 
0.9 0.6 0 
0.95 0.6 0 
1 0.6 0 
0 0.65 0 
0.05 0.65 0 
0.1 0.65 0 
0.15 0.65 0 
0.2 0.65 0 
0.25 0.65 0 
0.3 0.65 0 
0.35 0.65 0 
0.4 0.65 0 
0.45 0.65 0 
0.5 0.65 0 
0.55 0.65 0 
0.6 0.65 0 
0.65 0.65 0 
0.7 0.65 0 
0.75 0.65 0 
0.8 0.65 0 
0.85 0.65 0 
0.9 0.65 0 
0.95 0.65 0 
1 0.65 0 
0 0.7 0 
0.05 0.7 0 
0.1 0.7 0 
0.15 0.7 0 
0.2 0.7 0 
0.25 0.7 0 
0.3 0.7 0 
0.35 0.7 0 
0.4 0.7 0 
0.45 0.7 0 
0.5 0.7 0 
0.55 0.7 0 
0.6 0.7 0 
0.65 0.7 0 
0.7 0.7 0 
0.75 0.7 0 
0.8 0.7 0 
0.85 0.7 0 
0.9 0.7 0 
0.95 0.7 0 
1 0.7 0 
0 0.75 0 
0.05 0.75 0 
0.1 0.75 0 
0.15 0.75 0 
0.2 0.75 0 
0.25 0.75 0 
0.3 0.75 0 
0.35 0.75 0 
0.4 0.75 0 
0.45 0.75 0 
0.5 0.75 0 
0.55 0.75 0 
0.6 0.75 0 
0.65 0.75 0 
0.7 0.75 0 
0.75 0.75 0 
0.8 0.75 0 
0.85 0.75 0 
0.9 0.75 0 
0.95 0.75 0 
1 0.75 0 
0 0.8 0 
0.05 0.8 0 
0.1 0.8 0 
0.15 0.8 0 
0.2 0.8 0 
0.25 0.8 0 
0.3 0.8 0 
0.35 0.8 0 
0.4 0.8 0 
0.45 0.8 0 
0.5 0.8 0 
0.55 0.8 0 
0.6 0.8 0 
0.65 0.8 0 
0.7 0.8 0 
0.75 0.8 0 
0.8 0.8 0 
0.85 0.8 0 
0.9 0.8 0 
0.95 0.8 0 
1 0.8 0 
0 0.85 0 
0.05 0.85 0 
0.1 0.85 0 
0.15 0.85 0 
0.2 0.85 0 
0.25 0.85 0 
0.3 0.85 0 
0.35 0.85 0 
0.4 0.85 0 
0.45 0.85 0 
0.5 0.85 0 
0.55 0.85 0 
0.6 0.85 0 
0.65 0.85 0 
0.7 0.85 0 
0.75 0.85 0 
0.8 0.85 0 
0.85 0.85 0 
0.9 0.85 0 
0.95 0.85 0 
1 0.85 0 
0 0.9 0 
0.05 0.9 0 
0.1 0.9 0 
0.15 0.9 0 
0.2 0.9 0 
0.25 0.9 0 
0.3 0.9 0 
0.35 0.9 0 
0.4 0.9 0 
0.45 0.9 0 
0.5 0.9 0 
0.55 0.9 0 
0.6 0.9 0 
0.65 0.9 0 
0.7 0.9 0 
0.75 0.9 0 
0.8 0.9 0 
0.85 0.9 0 
0.9 0.9 0 
0.95 0.9 0 
1 0.9 0 
0 0.95 0 
0.05 0.95 0 
0.1 0.95 0 
0.15 0.95 0 
0.2 0.95 0 
0.25 0.95 0 
0.3 0.95 0 
0.35 0.95 0 
0.4 0.95 0 
0.45 0.95 0 
0.5 0.95 0 
0.55 0.95 0 
0.6 0.95 0 
0.65 0.95 0 
0.7 0.95 0 
0.75 0.95 0 
0.8 0.95 0 
0.85 0.95 0 
0.9 0.95 0 
0.95 0.95 0 
1 0.95 0 
0 1 0 
0.05 1 0 
0.1 1 0 
0.15 1 0 
0.2 1 0 
0.25 1 0 
0.3 1 0 
0.35 1 0 
0.4 1 0 
0.45 1 0 
0.5 1 0 
0.55 1 0 
0.6 1 0 
0.65 1 0 
0.7 1 0 
0.75 1 0 
0.8 1 0 
0.85 1 0 
0.9 1 0 
0.95 1 0 
1 1 0 
CELLS 400 2000
4 0 1 22 21 
4 1 2 23 22 
4 2 3 24 23 
4 3 4 25 24 
4 4 5 26 25 
4 5 6 27 26 
4 6 7 28 27 
4 7 8 29 28 
4 8 9 30 29 
4 9 10 31 30 
4 10 11 32 31 
4 11 12 33 32 
4 12 13 34 33 
4 13 14 35 34 
4 14 15 36 35 
4 15 16 37 36 
4 16 17 38 37 
4 17 18 39 38 
4 18 19 40 39 
4 19 20 41 40 
4 21 22 43 42 
4 22 23 44 43 
4 23 24 45 44 
4 24 25 46 45 
4 25 26 47 46 
4 26 27 48 47 
4 27 28 49 48 
4 28 29 50 49 
4 29 30 51 50 
4 30 31 52 51 
4 31 32 53 52 
4 32 33 54 53 
4 33 34 55 54 
4 34 35 56 55 
4 35 36 57 56 
4 36 37 58 57 
4 37 38 59 58 
4 38 39 60 59 
4 39 40 61 60 
4 40 41 62 61 
4 42 43 64 63 
4 43 44 65 64 
4 44 45 66 65 
4 45 46 67 66 
4 46 47 68 67 
4 47 48 69 68 
4 48 49 70 69 
4 49 50 71 70 
4 50 51 72 71 
4 51 52 73 72 
4 52 53 74 73 
4 53 54 75 74 
4 54 55 76 75 
4 55 56 77 76 
4 56 57 78 77 
4 57 58 79 78 
4 58 59 80 79 
4 59 60 81 80 
4 60 61 82 81 
4 61 62 83 82 
4 63 64 85 84 
4 64 65 86 85 
4 65 66 87 86 
4 66 67 88 87 
4 67 68 89 88 
4 68 69 90 89 
4 69 70 91 90 
4 70 71 92 91 
4 71 72 93 92 
4 72 73 94 93 
4 73 74 95 94 
4 74 75 96 95 
4 75 76 97 96 
4 76 77 98 97 
4 77 78 99 98 
4 78 79 100 99 
4 79 80 101 100 
4 80 81 102 101 
4 81 82 103 102 
4 82 83 104 103 
4 84 85 106 105 
4 85 86 107 106 
4 86 87 108 107 
4 87 88 109 108 
4 88 89 110 109 
4 89 90 111 110 
4 90 91 112 111 
4 91 92 113 112 
4 92 93 114 113 
4 93 94 115 114 
4 94 95 116 115 
4 95 96 117 116 
4 96 97 118 117 
4 97 98 119 118 
4 98 99 120 119 
4 99 100 121 120 
4 100 101 122 121 
4 101 102 123 122 
4 102 103 124 123 
4 103 104 125 124 
4 105 106 127 126 
4 106 107 128 127 
4 107 108 129 128 
4 108 109 130 129 
4 109 110 131 130 
4 110 111 132 131 
4 111 112 133 132 
4 112 113 134 133 
4 113 114 135 134 
4 114 115 136 135 
4 115 116 137 136 
4 116 117 138 137 
4 117 118 139 138 
4 118 119 140 139 
4 119 120 141 140 
4 120 121 142 141 
4 121 122 143 142 
4 122 123 144 143 
4 123 124 145 144 
4 124 125 146 145 
4 126 127 148 147 
4 127 128 149 148 
4 128 129 150 149 
4 129 130 151 150 
4 130 131 152 151 
4 131 132 153 152 
4 132 133 154 153 
4 133 134 155 154 
4 134 135 156 155 
4 135 136 157 156 
4 136 137 158 157 
4 137 138 159 158 
4 138 139 160 159 
4 139 140 161 160 
4 140 141 162 161 
4 141 142 163 162 
4 142 143 164 163 
4 143 144 165 164 
4 144 145 166 165 
4 145 146 167 166 
4 147 148 169 168 
4 148 149 170 169 
4 149 150 171 170 
4 150 151 172 171 
4 151 152 173 172 
4 152 153 174 173 
4 153 154 175 174 
4 154 155 176 175 
4 155 156 177 176 
4 156 157 178 177 
4 157 158 179 178 
4 158 159 180 179 
4 159 160 181 180 
4 160 161 182 181 
4 161 162 183 182 
4 162 163 184 183 
4 163 164 185 184 
4 164 165 186 185 
4 165 166 187 186 
4 166 167 188 187 
4 168 169 190 189 
4 169 170 191 190 
4 170 171 192 191 
4 171 172 193 192 
4 172 173 194 193 
4 173 174 195 194 
4 174 175 196 195 
4 175 176 197 196 
4 176 177 198 197 
4 177 178 199 198 
4 178 179 200 199 
4 179 180 201 200 
4 180 181 202 201 
4 181 182 203 202 
4 182 183 204 203 
4 183 184 205 204 
4 184 185 206 205 
4 185 186 207 206 
4 186 187 208 207 
4 187 188 209 208 
4 189 190 211 210 
4 190 191 212 211 
4 191 192 213 212 
4 192 193 214 213 
4 193 194 215 214 
4 194 195 216 215 
4 195 196 217 216 
4 196 197 218 217 
4 197 198 219 218 
4 198 199 220 219 
4 199 200 221 220 
4 200 201 222 221 
4 201 202 223 222 
4 202 203 224 223 
4 203 204 225 224 
4 204 205 226 225 
4 205 206 227 226 
4 206 207 228 227 
4 207 208 229 228 
4 208 209 230 229 
4 210 211 232 231 
4 211 212 233 232 
4 212 213 234 233 
4 213 214 235 234 
4 214 215 236 235 
4 215 216 237 236 
4 216 217 238 237 
4 217 218 239 238 
4 218 219 240 239 
4 219 220 241 240 
4 220 221 242 241 
4 221 222 243 242 
4 222 223 244 243 
4 223 224 245 244 
4 224 225 246 245 
4 225 226 247 246 
4 226 227 248 247 
4 227 228 249 248 
4 228 229 250 249 
4 229 230 251 250 
4 231 232 253 252 
4 232 233 254 253 
4 233 234 255 254 
4 234 235 256 255 
4 235 236 257 256 
4 236 237 258 257 
4 237 238 259 258 
4 238 239 260 259 
4 239 240 261 260 
4 240 241 262 261 
4 241 242 263 262 
4 242 243 264 263 
4 243 244 265 264 
4 244 245 266 265 
4 245 246 267 266 
4 246 247 268 267 
4 247 248 269 268 
4 248 249 270 269 
4 249 250 271 270 
4 250 251 272 271 
4 252 253 274 273 
4 253 254 275 274 
4 254 255 276 275 
4 255 256 277 276 
4 256 257 278 277 
4 257 258 279 278 
4 258 259 280 279 
4 259 260 281 280 
4 260 261 282 281 
4 261 262 283 282 
4 262 263 284 283 
4 263 264 285 284 
4 264 265 286 285 
4 265 266 287 286 
4 266 267 288 287 
4 267 268 289 288 
4 268 269 290 289 
4 269 270 291 290 
4 270 271 292 291 
4 271 272 293 292 
4 273 274 295 294 
4 274 275 296 295 
4 275 276 297 296 
4 276 277 298 297 
4 277 278 299 298 
4 278 279 300 299 
4 279 280 301 300 
4 280 281 302 301 
4 281 282 303 302 
4 282 283 304 303 
4 283 284 305 304 
4 284 285 306 305 
4 285 286 307 306 
4 286 287 308 307 
4 287 288 309 308 
4 288 289 310 309 
4 289 290 311 310 
4 290 291 312 311 
4 291 292 313 312 
4 292 293 314 313 
4 294 295 316 315 
4 295 296 317 316 
4 296 297 318 317 
4 297 298 319 318 
4 298 299 320 319 
4 299 300 321 320 
4 300 301 322 321 
4 301 302 323 322 
4 302 303 324 323 
4 303 304 325 324 
4 304 305 326 325 
4 305 306 327 326 
4 306 307 328 327 
4 307 308 329 328 
4 308 309 330 329 
4 309 310 331 330 
4 310 311 332 331 
4 311 312 333 332 
4 312 313 334 333 
4 313 314 335 334 
4 315 316 337 336 
4 316 317 338 337 
4 317 318 339 338 
4 318 319 340 339 
4 319 320 341 340 
4 320 321 342 341 
4 321 322 343 342 
4 322 323 344 343 
4 323 324 345 344 
4 324 325 346 345 
4 325 326 347 346 
4 326 327 348 347 
4 327 328 349 348 
4 328 329 350 349 
4 329 330 351 350 
4 330 331 352 351 
4 331 332 353 352 
4 332 333 354 353 
4 333 334 355 354 
4 334 335 356 355 
4 336 337 358 357 
4 337 338 359 358 
4 338 339 360 359 
4 339 340 361 360 
4 340 341 362 361 
4 341 342 363 362 
4 342 343 364 363 
4 343 344 365 364 
4 344 345 366 365 
4 345 346 367 366 
4 346 347 368 367 
4 347 348 369 368 
4 348 349 370 369 
4 349 350 371 370 
4 350 351 372 371 
4 351 352 373 372 
4 352 353 374 373 
4 353 354 375 374 
4 354 355 376 375 
4 355 356 377 376 
4 357 358 379 378 
4 358 359 380 379 
4 359 360 381 380 
4 360 361 382 381 
4 361 362 383 382 
4 362 363 384 383 
4 363 364 385 384 
4 364 365 386 385 
4 365 366 387 386 
4 366 367 388 387 
4 367 368 389 388 
4 368 369 390 389 
4 369 370 391 390 
4 370 371 392 391 
4 371 372 393 392 
4 372 373 394 393 
4 373 374 395 394 
4 374 375 396 395 
4 375 376 397 396 
4 376 377 398 397 
4 378 379 400 399 
4 379 380 401 400 
4 380 381 402 401 
4 381 382 403 402 
4 382 383 404 403 
4 383 384 405 404 
4 384 385 406 405 
4 385 386 407 406 
4 386 387 408 407 
4 387 388 409 408 
4 388 389 410 409 
4 389 390 411 410 
4 390 391 412 411 
4 391 392 413 412 
4 392 393 414 413 
4 393 394 415 414 
4 394 395 416 415 
4 395 396 417 416 
4 396 397 418 417 
4 397 398 419 418 
4 399 400 421 420 
4 400 401 422 421 
4 401 402 423 422 
4 402 403 424 423 
4 403 404 425 424 
4 404 405 426 425 
4 405 406 427 426 
4 406 407 428 427 
4 407 408 429 428 
4 408 409 430 429 
4 409 410 431 430 
4 410 411 432 431 
4 411 412 433 432 
4 412 413 434 433 
4 413 414 435 434 
4 414 415 436 435 
4 415 416 437 436 
4 416 417 438 437 
4 417 418 439 438 
4 418 419 440 439 
CELL_TYPES 400
9
9
9
9
9
9
9
9
9
9
9
9
9
9
9
9
9
9
9
9
9
9
9
9
9
9
9
9
9
9
9
9
9
9
9
9
9
9
9
9
9
9
9
9
9
9
9
9
9
9
9
9
9
9
9
9
9
9
9
9
9
9
9
9
9
9
9
9
9
9
9
9
9
9
9
9
9
9
9
9
9
9
9
9
9
9
9
9
9
9
9
9
9
9
9
9
9
9
9
9
9
9
9
9
9
9
9
9
9
9
9
9
9
9
9
9
9
9
9
9
9
9
9
9
9
9
9
9
9
9
9
9
9
9
9
9
9
9
9
9
9
9
9
9
9
9
9
9
9
9
9
9
9
9
9
9
9
9
9
9
9
9
9
9
9
9
9
9
9
9
9
9
9
9
9
9
9
9
9
9
9
9
9
9
9
9
9
9
9
9
9
9
9
9
9
9
9
9
9
9
9
9
9
9
9
9
9
9
9
9
9
9
9
9
9
9
9
9
9
9
9
9
9
9
9
9
9
9
9
9
9
9
9
9
9
9
9
9
9
9
9
9
9
9
9
9
9
9
9
9
9
9
9
9
9
9
9
9
9
9
9
9
9
9
9
9
9
9
9
9
9
9
9
9
9
9
9
9
9
9
9
9
9
9
9
9
9
9
9
9
9
9
9
9
9
9
9
9
9
9
9
9
9
9
9
9
9
9
9
9
9
9
9
9
9
9
9
9
9
9
9
9
9
9
9
9
9
9
9
9
9
9
9
9
9
9
9
9
9
9
9
9
9
9
9
9
9
9
9
9
9
9
9
9
9
9
9
9
9
9
9
9
9
9
9
9
9
9
9
9
9
9
9
9
9
9
9
9
9
9
9
9
9
9
9
9
9
9
9
9
9
9
9
9
9
9
9
9
9
9
POINT_DATA 441
VECTORS disp float 
0 0 0 
0.00376839 0.00344513 0 
0.00647365 0.00546633 0 
0.00889355 0.00688252 0 
0.0112127 0.00793029 0 
0.0134994 0.00871992 0 
0.0157854 0.00931796 0 
0.0180868 0.00977002 0 
0.0204119 0.0101096 0 
0.022764 0.0103623 0 
0.025144 0.0105479 0 
0.0275509 0.0106822 0 
0.0299827 0.0107776 0 
0.0324368 0.0108439 0 
0.0349105 0.0108888 0 
0.0374008 0.0109182 0 
0.0399047 0.0109369 0 
0.0424193 0.0109481 0 
0.0449419 0.0109545 0 
0.0474696 0.0109577 0 
0.05 0.0109587 0 
0 0 0 
0.00245492 0.00239583 0 
0.00525351 0.00439101 0 
0.00789444 0.00584854 0 
0.010415 0.00692318 0 
0.0128686 0.00772485 0 
0.0152902 0.00832528 0 
0.017701 0.00877393 0 
0.0201137 0.00910684 0 
0.0225358 0.00935118 0 
0.0249711 0.00952794 0 
0.0274215 0.00965347 0 
0.0298872 0.00974063 0 
0.0323674 0.00979947 0 
0.0348609 0.00983784 0 
0.0373661 0.00986179 0 
0.0398811 0.00987595 0 
0.0424039 0.00988376 0 
0.0449327 0.0098877 0 
0.0474654 0.00988943 0 
0.05 0.0098899 0 
0 0 0 
0.00216737 0.00181952 0 
0.00464703 0.00350701 0 
0.00722553 0.00487111 0 
0.00978972 0.00591984 0 
0.0123207 0.00671368 0 
0.0148255 0.00730993 0 
0.0173146 0.00775424 0 
0.019797 0.00808193 0 
0.0222793 0.00832038 0 
0.0247657 0.00849095 0 
0.0272587 0.00861036 0 
0.0297596 0.00869172 0 
0.0322686 0.00874527 0 
0.0347855 0.00877899 0 
0.0373096 0.00879898 0 
0.03984 0.0088099 0 
0.0423754 0.00881521 0 
0.0449148 0.00881737 0 
0.0474567 0.00881804 0 
0.05 0.00881815 0 
0 0 0 
0.00206723 0.00144016 0 
0.00436983 0.00282165 0 
0.00682718 0.00401345 0 
0.00934994 0.00497617 0 
0.01189 0.00572649 0 
0.0144294 0.00629884 0 
0.0169638 0.00672834 0 
0.0194942 0.00704564 0 
0.0220227 0.00727604 0 
0.0245516 0.00743998 0 
0.0270825 0.00755378 0 
0.0296165 0.00763036 0 
0.032154 0.00767987 0 
0.0346953 0.0077102 0 
0.03724 0.00772743 0 
0.039788 0.00773616 0 
0.0423386 0.00773981 0 
0.0448912 0.00774081 0 
0.0474453 0.00774079 0 
0.05 0.00774069 0 
0 0 0 
0.00202092 0.00115249 0 
0.00423011 0.00227036 0 
0.00659323 0.00327072 0 
0.00905519 0.00411082 0 
0.0115709 0.00478578 0 
0.0141127 0.00531146 0 
0.0166663 0.00571115 0 
0.0192248 0.00600863 0 
0.0217852 0.00622537 0 
0.0243467 0.0063796 0 
0.0269088 0.00648634 0 
0.0294717 0.00655774 0 
0.0320353 0.00660343 0 
0.0345998 0.00663096 0 
0.037165 0.00664615 0 
0.039731 0.00665342 0 
0.0422977 0.00665606 0 
0.0448648 0.00665641 0 
0.0474323 0.00665602 0 
0.05 0.00665579 0 
0 0 0 
0.0019962 0.000914217 0 
0.0041526 0.0018044 0 
0.00645177 0.00261765 0 
0.0088599 0.00331938 0 
0.011342 0.00389767 0 
0.0138704 0.00435734 0 
0.0164265 0.00471213 0 
0.0189982 0.00497895 0 
0.0215785 0.00517464 0 
0.024163 0.00531439 0 
0.0267493 0.00541124 0 
0.0293358 0.00547593 0 
0.0319219 0.00551717 0 
0.0345071 0.00554182 0 
0.0370913 0.00555522 0 
0.0396744 0.00556143 0 
0.0422567 0.00556348 0 
0.0448382 0.00556352 0 
0.0474192 0.005563 0 
0.05 0.00556274 0 
0 0 0 
0.00198199 0.000705558 0 
0.00410671 0.00139354 0 
0.00636359 0.00202968 0 
0.00873051 0.00258863 0 
0.0111812 0.0030582 0 
0.0136913 0.00343795 0 
0.0162414 0.00373519 0 
0.018817 0.00396114 0 
0.0214082 0.00412814 0 
0.024008 0.00424806 0 
0.0266118 0.00433143 0 
0.0292168 0.00438723 0 
0.031821 0.0044228 0 
0.0344237 0.00444402 0 
0.0370242 0.0044555 0 
0.0396225 0.00446076 0 
0.0422188 0.00446242 0 
0.0448135 0.00446238 0 
0.047407 0.00446187 0 
0.05 0.00446162 0 
0 0 0 
0.00197358 0.000515694 0 
0.00407871 0.00101881 0 
0.00630796 0.00148739 0 
0.00864555 0.00190401 0 
0.0110712 0.00225882 0 
0.013564 0.00254958 0 
0.0161054 0.0027798 0 
0.0186801 0.00295645 0 
0.0212764 0.00308799 0 
0.0238856 0.00318296 0 
0.0265015 0.00324926 0 
0.0291199 0.00329376 0 
0.031738 0.00332218 0 
0.0343543 0.00333916 0 
0.036968 0.00334836 0 
0.0395787 0.00335257 0 
0.0421867 0.0033539 0 
0.0447925 0.00335386 0 
0.0473966 0.00335345 0 
0.05 0.00335325 0 
0 0 0 
0.00196867 0.00033785 0 
0.00406192 0.000667535 0 
0.00627382 0.000975895 0 
0.00859204 0.0012521 0 
0.0109999 0.00148945 0 
0.0134793 0.00168573 0 
0.0160128 0.00184246 0 
0.0185849 0.00196359 0 
0.0211831 0.00205431 0 
0.0237977 0.00212011 0 
0.0264213 0.00216622 0 
0.0290487 0.00219725 0 
0.0316765 0.00221712 0 
0.0343026 0.00222902 0 
0.0369258 0.00223548 0 
0.0395457 0.00223846 0 
0.0421624 0.00223941 0 
0.0447765 0.0022394 0 
0.0473887 0.00223912 0 
0.05 0.00223898 0 
0 0 0 
0.00196608 0.000167224 0 
0.00405292 0.000330421 0 
0.00625527 0.000483408 0 
0.0085625 0.000620997 0 
0.0109599 0.000739835 0 
0.013431 0.00083864 0 
0.0159591 0.000917933 0 
0.0185289 0.000979485 0 
0.0211276 0.00102575 0 
0.0237449 0.00105942 0 
0.0263727 0.00108306 0 
0.0290053 0.00109901 0 
0.0316388 0.00110924 0 
0.0342707 0.00111538 0 
0.0368996 0.00111872 0 
0.0395252 0.00112027 0 
0.0421473 0.00112077 0 
0.0447666 0.00112077 0 
0.0473838 0.00112063 0 
0.05 0.00112056 0 
0 0 0 
0.00196528 2.59997e-17 0 
0.00405008 5.96324e-17 0 
0.00624938 9.71784e-17 0 
0.00855305 1.36884e-16 0 
0.0109471 1.84131e-16 0 
0.0134153 2.32701e-16 0 
0.0159415 2.81993e-16 0 
0.0185105 3.37861e-16 0 
0.0211092 3.96845e-16 0 
0.0237273 4.46332e-16 0 
0.0263564 5.07942e-16 0 
0.0289907 5.50253e-16 0 
0.031626 5.90389e-16 0 
0.0342599 6.20987e-16 0 
0.0368908 6.37694e-16 0 
0.0395182 6.58636e-16 0 
0.0421422 6.71186e-16 0 
0.0447632 6.75651e-16 0 
0.0473821 7.00191e-16 0 
0.05 7.03403e-16 0 
0 0 0 
0.00196608 -0.000167224 0 
0.00405292 -0.000330421 0 
0.00625527 -0.000483408 0 
0.0085625 -0.000620997 0 
0.0109599 -0.000739835 0 
0.013431 -0.00083864 0 
0.0159591 -0.000917933 0 
0.0185289 -0.000979485 0 
0.0211276 -0.00102575 0 
0.0237449 -0.00105942 0 
0.0263727 -0.00108306 0 
0.0290053 -0.00109901 0 
0.0316388 -0.00110924 0 
0.0342707 -0.00111538 0 
0.0368996 -0.00111872 0 
0.0395252 -0.00112027 0 
0.0421473 -0.00112077 0 
0.0447666 -0.00112077 0 
0.0473838 -0.00112063 0 
0.05 -0.00112056 0 
0 0 0 
0.00196867 -0.00033785 0 
0.00406192 -0.000667535 0 
0.00627382 -0.000975895 0 
0.00859204 -0.0012521 0 
0.0109999 -0.00148945 0 
0.0134793 -0.00168573 0 
0.0160128 -0.00184246 0 
0.0185849 -0.00196359 0 
0.0211831 -0.00205431 0 
0.0237977 -0.00212011 0 
0.0264213 -0.00216622 0 
0.0290487 -0.00219725 0 
0.0316765 -0.00221712 0 
0.0343026 -0.00222902 0 
0.0369258 -0.00223548 0 
0.0395457 -0.00223846 0 
0.0421624 -0.00223941 0 
0.0447765 -0.0022394 0 
0.0473887 -0.00223912 0 
0.05 -0.00223898 0 
0 0 0 
0.00197358 -0.000515694 0 
0.00407871 -0.00101881 0 
0.00630796 -0.00148739 0 
0.00864555 -0.00190401 0 
0.0110712 -0.00225882 0 
0.013564 -0.00254958 0 
0.0161054 -0.0027798 0 
0.0186801 -0.00295645 0 
0.0212764 -0.00308799 0 
0.0238856 -0.00318296 0 
0.0265015 -0.00324926 0 
0.0291199 -0.00329376 0 
0.031738 -0.00332218 0 
0.0343543 -0.00333916 0 
0.036968 -0.00334836 0 
0.0395787 -0.00335257 0 
0.0421867 -0.0033539 0 
0.0447925 -0.00335386 0 
0.0473966 -0.00335345 0 
0.05 -0.00335325 0 
0 0 0 
0.00198199 -0.000705558 0 
0.00410671 -0.00139354 0 
0.00636359 -0.00202968 0 
0.00873051 -0.00258863 0 
0.0111812 -0.0030582 0 
0.0136913 -0.00343795 0 
0.0162414 -0.00373519 0 
0.018817 -0.00396114 0 
0.0214082 -0.00412814 0 
0.024008 -0.00424806 0 
0.0266118 -0.00433143 0 
0.0292168 -0.00438723 0 
0.031821 -0.0044228 0 
0.0344237 -0.00444402 0 
0.0370242 -0.0044555 0 
0.0396225 -0.00446076 0 
0.0422188 -0.00446242 0 
0.0448135 -0.00446238 0 
0.047407 -0.00446187 0 
0.05 -0.00446162 0 
0 0 0 
0.0019962 -0.000914217 0 
0.0041526 -0.0018044 0 
0.00645177 -0.00261765 0 
0.0088599 -0.00331938 0 
0.011342 -0.00389767 0 
0.0138704 -0.00435734 0 
0.0164265 -0.00471213 0 
0.0189982 -0.00497895 0 
0.0215785 -0.00517464 0 
0.024163 -0.00531439 0 
0.0267493 -0.00541124 0 
0.0293358 -0.00547593 0 
0.0319219 -0.00551717 0 
0.0345071 -0.00554182 0 
0.0370913 -0.00555522 0 
0.0396744 -0.00556143 0 
0.0422567 -0.00556348 0 
0.0448382 -0.00556352 0 
0.0474192 -0.005563 0 
0.05 -0.00556274 0 
0 0 0 
0.00202092 -0.00115249 0 
0.00423011 -0.00227036 0 
0.00659323 -0.00327072 0 
0.00905519 -0.00411082 0 
0.0115709 -0.00478578 0 
0.0141127 -0.00531146 0 
0.0166663 -0.00571115 0 
0.0192248 -0.00600863 0 
0.0217852 -0.00622537 0 
0.0243467 -0.0063796 0 
0.0269088 -0.00648634 0 
0.0294717 -0.00655774 0 
0.0320353 -0.00660343 0 
0.0345998 -0.00663096 0 
0.037165 -0.00664615 0 
0.039731 -0.00665342 0 
0.0422977 -0.00665606 0 
0.0448648 -0.00665641 0 
0.0474323 -0.00665602 0 
0.05 -0.00665579 0 
0 0 0 
0.00206723 -0.00144016 0 
0.00436983 -0.00282165 0 
0.00682718 -0.00401345 0 
0.00934994 -0.00497617 0 
0.01189 -0.00572649 0 
0.0144294 -0.00629884 0 
0.0169638 -0.00672834 0 
0.0194942 -0.00704564 0 
0.0220227 -0.00727604 0 
0.0245516 -0.00743998 0 
0.0270825 -0.00755378 0 
0.0296165 -0.00763036 0 
0.032154 -0.00767987 0 
0.0346953 -0.0077102 0 
0.03724 -0.00772743 0 
0.039788 -0.00773616 0 
0.0423386 -0.00773981 0 
0.0448912 -0.00774081 0 
0.0474453 -0.00774079 0 
0.05 -0.00774069 0 
0 0 0 
0.00216737 -0.00181952 0 
0.00464703 -0.00350701 0 
0.00722553 -0.00487111 0 
0.00978972 -0.00591984 0 
0.0123207 -0.00671368 0 
0.0148255 -0.00730993 0 
0.0173146 -0.00775424 0 
0.019797 -0.00808193 0 
0.0222793 -0.00832038 0 
0.0247657 -0.00849095 0 
0.0272587 -0.00861036 0 
0.0297596 -0.00869172 0 
0.0322686 -0.00874527 0 
0.0347855 -0.00877899 0 
0.0373096 -0.00879898 0 
0.03984 -0.0088099 0 
0.0423754 -0.00881521 0 
0.0449148 -0.00881737 0 
0.0474567 -0.00881804 0 
0.05 -0.00881815 0 
0 0 0 
0.00245492 -0.00239583 0 
0.00525351 -0.00439101 0 
0.00789444 -0.00584854 0 
0.010415 -0.00692318 0 
0.0128686 -0.00772485 0 
0.0152902 -0.00832528 0 
0.017701 -0.00877393 0 
0.0201137 -0.00910684 0 
0.0225358 -0.00935118 0 
0.0249711 -0.00952794 0 
0.0274215 -0.00965347 0 
0.0298872 -0.00974063 0 
0.0323674 -0.00979947 0 
0.0348609 -0.00983784 0 
0.0373661 -0.00986179 0 
0.0398811 -0.00987595 0 
0.0424039 -0.00988376 0 
0.0449327 -0.0098877 0 
0.0474654 -0.00988943 0 
0.05 -0.0098899 0 
0 0 0 
0.00376839 -0.00344513 0 
0.00647365 -0.00546633 0 
0.00889355 -0.00688252 0 
0.0112127 -0.00793029 0 
0.0134994 -0.00871992 0 
0.0157854 -0.00931796 0 
0.0180868 -0.00977002 0 
0.0204119 -0.0101096 0 
0.022764 -0.0103623 0 
0.025144 -0.0105479 0 
0.0275509 -0.0106822 0 
0.0299827 -0.0107776 0 
0.0324368 -0.0108439 0 
0.0349105 -0.0108888 0 
0.0374008 -0.0109182 0 
0.0399047 -0.0109369 0 
0.0424193 -0.0109481 0 
0.0449419 -0.0109545 0 
0.0474696 -0.0109577 0 
0.05 -0.0109587 0 
CELL_DATA 400
TENSORS sigma float 
71.3818 16.0457 0 16.0457 7.23911 0 0 0 22.4017 
60.6095 6.07383 0 6.07383 1.97467 0 0 0 17.9604 
55.0638 2.97843 0 2.97843 0.764706 0 0 0 16.0744 
52.4047 1.63838 0 1.63838 0.339603 0 0 0 15.2101 
51.197 0.93128 0 0.93128 0.143845 0 0 0 14.8151 
50.7607 0.515082 0 0.515082 0.0384322 0 0 0 14.6612 
50.7522 0.255702 0 0.255702 -0.0239822 0 0 0 14.6393 
50.9817 0.0903059 0 0.0903059 -0.0632576 0 0 0 14.6905 
51.3368 -0.0146542 0 -0.0146542 -0.0889591 0 0 0 14.7808 
51.7483 -0.0789626 0 -0.0789626 -0.106171 0 0 0 14.8893 
52.1726 -0.115211 0 -0.115211 -0.117812 0 0 0 15.003 
52.582 -0.131872 0 -0.131872 -0.125671 0 0 0 15.1137 
52.9597 -0.134865 0 -0.134865 -0.130907 0 0 0 15.2164 
53.2958 -0.128411 0 -0.128411 -0.13431 0 0 0 15.3082 
53.5852 -0.115542 0 -0.115542 -0.136439 0 0 0 15.3874 
53.8256 -0.098421 0 -0.098421 -0.137701 0 0 0 15.4533 
54.0165 -0.0785733 0 -0.0785733 -0.138396 0 0 0 15.5058 
54.1586 -0.0570484 0 -0.0570484 -0.138742 0 0 0 15.5449 
54.2526 -0.0345544 0 -0.0345544 -0.138891 0 0 0 15.5707 
54.2994 -0.011568 0 -0.011568 -0.138942 0 0 0 15.5836 
59.4011 14.9742 0 14.9742 17.8997 0 0 0 22.4949 
59.1975 10.7976 0 10.7976 6.75461 0 0 0 19.0279 
57.2317 6.20824 0 6.20824 3.03636 0 0 0 17.3694 
55.3198 3.47787 0 3.47787 1.53993 0 0 0 16.3884 
54.0032 1.88501 0 1.88501 0.828555 0 0 0 15.8061 
53.2263 0.926821 0 0.926821 0.445038 0 0 0 15.472 
52.839 0.338192 0 0.338192 0.218764 0 0 0 15.2939 
52.7128 -0.0232709 0 -0.0232709 0.0766386 0 0 0 15.214 
52.7532 -0.238943 0 -0.238943 -0.0163678 0 0 0 15.1957 
52.8941 -0.358351 0 -0.358351 -0.0786735 0 0 0 15.2148 
53.0894 -0.413285 0 -0.413285 -0.120773 0 0 0 15.2554 
53.3079 -0.424974 0 -0.424974 -0.149092 0 0 0 15.3067 
53.5281 -0.407959 0 -0.407959 -0.167823 0 0 0 15.3616 
53.7362 -0.372312 0 -0.372312 -0.179849 0 0 0 15.4152 
53.9231 -0.324992 0 -0.324992 -0.187231 0 0 0 15.4644 
54.0832 -0.270725 0 -0.270725 -0.19148 0 0 0 15.5073 
54.2133 -0.212613 0 -0.212613 -0.19371 0 0 0 15.5424 
54.3117 -0.152584 0 -0.152584 -0.194733 0 0 0 15.5693 
54.3776 -0.0917317 0 -0.0917317 -0.195116 0 0 0 15.5873 
54.4106 -0.0305972 0 -0.0305972 -0.19522 0 0 0 15.5964 
54.9492 12.1666 0 12.1666 19.1484 0 0 0 21.6923 
56.4962 10.4103 0 10.4103 11.3791 0 0 0 19.74 
56.6936 7.38555 0 7.38555 6.29095 0 0 0 18.2376 
56.1166 4.71385 0 4.71385 3.57154 0 0 0 17.244 
55.3794 2.79593 0 2.79593 2.08772 0 0 0 16.5818 
54.7614 1.50164 0 1.50164 1.22934 0 0 0 16.1434 
54.33 0.649521 0 0.649521 0.703747 0 0 0 15.8591 
54.0703 0.10083 0 0.10083 0.367163 0 0 0 15.6811 
53.9449 -0.239983 0 -0.239983 0.144886 0 0 0 15.5759 
53.9155 -0.437867 0 -0.437867 -0.00443966 0 0 0 15.5203 
53.9497 -0.537454 0 -0.537454 -0.105211 0 0 0 15.4977 
54.0227 -0.56985 0 -0.56985 -0.172721 0 0 0 15.4963 
54.1156 -0.556947 0 -0.556947 -0.217097 0 0 0 15.5079 
54.215 -0.514177 0 -0.514177 -0.245354 0 0 0 15.5263 
54.3115 -0.452338 0 -0.452338 -0.262515 0 0 0 15.5475 
54.3985 -0.378848 0 -0.378848 -0.272247 0 0 0 15.5685 
54.4718 -0.298647 0 -0.298647 -0.277242 0 0 0 15.5871 
54.5286 -0.214871 0 -0.214871 -0.279443 0 0 0 15.6021 
54.5673 -0.129382 0 -0.129382 -0.280204 0 0 0 15.6125 
54.5868 -0.0431881 0 -0.0431881 -0.280378 0 0 0 15.6179 
52.953 9.81918 0 9.81918 19.3227 0 0 0 21.2228 
54.6922 8.94769 0 8.94769 13.636 0 0 0 19.9627 
55.6788 7.0953 0 7.0953 8.90776 0 0 0 18.7827 
55.9642 5.04034 0 5.04034 5.66513 0 0 0 17.8608 
55.8404 3.27574 0 3.27574 3.58258 0 0 0 17.18 
55.564 1.92981 0 1.92981 2.24786 0 0 0 16.6866 
55.2782 0.965589 0 0.965589 1.37614 0 0 0 16.3336 
55.0427 0.304641 0 0.304641 0.79455 0 0 0 16.0848 
54.8725 -0.128383 0 -0.128383 0.400218 0 0 0 15.9127 
54.7627 -0.394726 0 -0.394726 0.130681 0 0 0 15.7968 
54.7015 -0.541358 0 -0.541358 -0.0533987 0 0 0 15.7214 
54.6763 -0.603432 0 -0.603432 -0.17786 0 0 0 15.6748 
54.6755 -0.606904 0 -0.606904 -0.260371 0 0 0 15.6484 
54.6899 -0.570701 0 -0.570701 -0.313429 0 0 0 15.6355 
54.7123 -0.508415 0 -0.508415 -0.346093 0 0 0 15.6314 
54.7373 -0.429598 0 -0.429598 -0.365019 0 0 0 15.6323 
54.761 -0.340775 0 -0.340775 -0.375093 0 0 0 15.6357 
54.7808 -0.246235 0 -0.246235 -0.379851 0 0 0 15.6397 
54.7949 -0.148667 0 -0.148667 -0.381743 0 0 0 15.643 
54.8022 -0.0496899 0 -0.0496899 -0.382316 0 0 0 15.6448 
51.9397 7.87415 0 7.87415 19.3657 0 0 0 20.9761 
53.5906 7.36973 0 7.36973 14.8096 0 0 0 20.0386 
54.8175 6.20395 0 6.20395 10.6618 0 0 0 19.1015 
55.5389 4.73378 0 4.73378 7.385 0 0 0 18.2869 
55.8491 3.30363 0 3.30363 4.99454 0 0 0 17.6285 
55.9001 2.09614 0 2.09614 3.30772 0 0 0 17.1144 
55.8192 1.16076 0 1.16076 2.12774 0 0 0 16.7207 
55.6878 0.479169 0 0.479169 1.30172 0 0 0 16.4234 
55.5497 0.00893755 0 0.00893755 0.722492 0 0 0 16.2016 
55.4253 -0.295537 0 -0.295537 0.316963 0 0 0 16.0385 
55.3218 -0.474887 0 -0.474887 0.0350071 0 0 0 15.9203 
55.2397 -0.56249 0 -0.56249 -0.158424 0 0 0 15.8362 
55.1767 -0.584556 0 -0.584556 -0.288403 0 0 0 15.7775 
55.1297 -0.561038 0 -0.561038 -0.373225 0 0 0 15.7376 
55.0954 -0.506726 0 -0.506726 -0.426431 0 0 0 15.7113 
55.071 -0.432298 0 -0.432298 -0.45809 0 0 0 15.6946 
55.054 -0.345234 0 -0.345234 -0.475658 0 0 0 15.6844 
55.0428 -0.250607 0 -0.250607 -0.484542 0 0 0 15.6785 
55.036 -0.151743 0 -0.151743 -0.488503 0 0 0 15.6754 
55.0328 -0.0507885 0 -0.0507885 -0.48991 0 0 0 15.6741 
51.3821 6.18982 0 6.18982 19.3944 0 0 0 20.8453 
52.9151 5.86834 0 5.86834 15.4916 0 0 0 20.0756 
54.1903 5.10919 0 5.10919 11.8095 0 0 0 19.2945 
55.1112 4.08213 0 4.08213 8.66616 0 0 0 18.5749 
55.6852 2.99815 0 2.99815 6.16792 0 0 0 17.9546 
55.9839 2.01104 0 2.01104 4.2668 0 0 0 17.4412 
56.0938 1.19589 0 1.19589 2.85454 0 0 0 17.0267 
56.0878 0.569666 0 0.569666 1.81982 0 0 0 16.6979 
56.018 0.117624 0 0.117624 1.06923 0 0 0 16.4407 
55.918 -0.187976 0 -0.187976 0.53029 0 0 0 16.242 
55.8083 -0.377378 0 -0.377378 0.148249 0 0 0 16.0903 
55.7006 -0.478341 0 -0.478341 -0.118015 0 0 0 15.9759 
55.6013 -0.514244 0 -0.514244 -0.299502 0 0 0 15.8909 
55.5135 -0.503746 0 -0.503746 -0.419692 0 0 0 15.8285 
55.4387 -0.46116 0 -0.46116 -0.496403 0 0 0 15.7836 
55.3771 -0.3971 0 -0.3971 -0.543113 0 0 0 15.7518 
55.3286 -0.319186 0 -0.319186 -0.569899 0 0 0 15.73 
55.2927 -0.23272 0 -0.23272 -0.584123 0 0 0 15.7156 
55.2691 -0.1413 0 -0.1413 -0.59092 0 0 0 15.707 