# vtk DataFile Version 2.0
Generated by inSilico's base::io::vtk::LegacyWriter
ASCII
DATASET UNSTRUCTURED_GRID
POINTS 441 float
0 0 0 
0.05 0 0 
0.1 0 0 
0.15 0 0 
0.2 0 0 
0.25 0 0 
0.3 0 0 
0.35 0 0 
0.4 0 0 
0.45 0 0 
0.5 0 0 
0.55 0 0 
0.6 0 0 
0.65 0 0 
0.7 0 0 
0.75 0 0 
0.8 0 0 
0.85 0 0 
0.9 0 0 
0.95 0 0 
1 0 0 
0 0.05 0 
0.05 0.05 0 
0.1 0.05 0 
0.15 0.05 0 
0.2 0.05 0 
0.25 0.05 0 
0.3 0.05 0 
0.35 0.05 0 
0.4 0.05 0 
0.45 0.05 0 
0.5 0.05 0 
0.55 0.05 0 
0.6 0.05 0 
0.65 0.05 0 
0.7 0.05 0 
0.75 0.05 0 
0.8 0.05 0 
0.85 0.05 0 
0.9 0.05 0 
0.95 0.05 0 
1 0.05 0 
0 0.1 0 
0.05 0.1 0 
0.1 0.1 0 
0.15 0.1 0 
0.2 0.1 0 
0.25 0.1 0 
0.3 0.1 0 
0.35 0.1 0 
0.4 0.1 0 
0.45 0.1 0 
0.5 0.1 0 
0.55 0.1 0 
0.6 0.1 0 
0.65 0.1 0 
0.7 0.1 0 
0.75 0.1 0 
0.8 0.1 0 
0.85 0.1 0 
0.9 0.1 0 
0.95 0.1 0 
1 0.1 0 
0 0.15 0 
0.05 0.15 0 
0.1 0.15 0 
0.15 0.15 0 
0.2 0.15 0 
0.25 0.15 0 
0.3 0.15 0 
0.35 0.15 0 
0.4 0.15 0 
0.45 0.15 0 
0.5 0.15 0 
0.55 0.15 0 
0.6 0.15 0 
0.65 0.15 0 
0.7 0.15 0 
0.75 0.15 0 
0.8 0.15 0 
0.85 0.15 0 
0.9 0.15 0 
0.95 0.15 0 
1 0.15 0 
0 0.2 0 
0.05 0.2 0 
0.1 0.2 0 
0.15 0.2 0 
0.2 0.2 0 
0.25 0.2 0 
0.3 0.2 0 
0.35 0.2 0 
0.4 0.2 0 
0.45 0.2 0 
0.5 0.2 0 
0.55 0.2 0 
0.6 0.2 0 
0.65 0.2 0 
0.7 0.2 0 
0.75 0.2 0 
0.8 0.2 0 
0.85 0.2 0 
0.9 0.2 0 
0.95 0.2 0 
1 0.2 0 
0 0.25 0 
0.05 0.25 0 
0.1 0.25 0 
0.15 0.25 0 
0.2 0.25 0 
0.25 0.25 0 
0.3 0.25 0 
0.35 0.25 0 
0.4 0.25 0 
0.45 0.25 0 
0.5 0.25 0 
0.55 0.25 0 
0.6 0.25 0 
0.65 0.25 0 
0.7 0.25 0 
0.75 0.25 0 
0.8 0.25 0 
0.85 0.25 0 
0.9 0.25 0 
0.95 0.25 0 
1 0.25 0 
0 0.3 0 
0.05 0.3 0 
0.1 0.3 0 
0.15 0.3 0 
0.2 0.3 0 
0.25 0.3 0 
0.3 0.3 0 
0.35 0.3 0 
0.4 0.3 0 
0.45 0.3 0 
0.5 0.3 0 
0.55 0.3 0 
0.6 0.3 0 
0.65 0.3 0 
0.7 0.3 0 
0.75 0.3 0 
0.8 0.3 0 
0.85 0.3 0 
0.9 0.3 0 
0.95 0.3 0 
1 0.3 0 
0 0.35 0 
0.05 0.35 0 
0.1 0.35 0 
0.15 0.35 0 
0.2 0.35 0 
0.25 0.35 0 
0.3 0.35 0 
0.35 0.35 0 
0.4 0.35 0 
0.45 0.35 0 
0.5 0.35 0 
0.55 0.35 0 
0.6 0.35 0 
0.65 0.35 0 
0.7 0.35 0 
0.75 0.35 0 
0.8 0.35 0 
0.85 0.35 0 
0.9 0.35 0 
0.95 0.35 0 
1 0.35 0 
0 0.4 0 
0.05 0.4 0 
0.1 0.4 0 
0.15 0.4 0 
0.2 0.4 0 
0.25 0.4 0 
0.3 0.4 0 
0.35 0.4 0 
0.4 0.4 0 
0.45 0.4 0 
0.5 0.4 0 
0.55 0.4 0 
0.6 0.4 0 
0.65 0.4 0 
0.7 0.4 0 
0.75 0.4 0 
0.8 0.4 0 
0.85 0.4 0 
0.9 0.4 0 
0.95 0.4 0 
1 0.4 0 
0 0.45 0 
0.05 0.45 0 
0.1 0.45 0 
0.15 0.45 0 
0.2 0.45 0 
0.25 0.45 0 
0.3 0.45 0 
0.35 0.45 0 
0.4 0.45 0 
0.45 0.45 0 
0.5 0.45 0 
0.55 0.45 0 
0.6 0.45 0 
0.65 0.45 0 
0.7 0.45 0 
0.75 0.45 0 
0.8 0.45 0 
0.85 0.45 0 
0.9 0.45 0 
0.95 0.45 0 
1 0.45 0 
0 0.5 0 
0.05 0.5 0 
0.1 0.5 0 
0.15 0.5 0 
0.2 0.5 0 
0.25 0.5 0 
0.3 0.5 0 
0.35 0.5 0 
0.4 0.5 0 
0.45 0.5 0 
0.5 0.5 0 
0.55 0.5 0 
0.6 0.5 0 
0.65 0.5 0 
0.7 0.5 0 
0.75 0.5 0 
0.8 0.5 0 
0.85 0.5 0 
0.9 0.5 0 
0.95 0.5 0 
1 0.5 0 
0 0.55 0 
0.05 0.55 0 
0.1 0.55 0 
0.15 0.55 0 
0.2 0.55 0 
0.25 0.55 0 
0.3 0.55 0 
0.35 0.55 0 
0.4 0.55 0 
0.45 0.55 0 
0.5 0.55 0 
0.55 0.55 0 
0.6 0.55 0 
0.65 0.55 0 
0.7 0.55 0 
0.75 0.55 0 
0.8 0.55 0 
0.85 0.55 0 
0.9 0.55 0 
0.95 0.55 0 
1 0.55 0 
0 0.6 0 
0.05 0.6 0 
0.1 0.6 0 
0.15 0.6 0 
0.2 0.6 0 
0.25 0.6 0 
0.3 0.6 0 
0.35 0.6 0 
0.4 0.6 0 
0.45 0.6 0 
0.5 0.6 0 
0.55 0.6 0 
0.6 0.6 0 
0.65 0.6 0 
0.7 0.6 0 
0.75 0.6 0 
0.8 0.6 0 
0.85 0.6 0 
0.9 0.6 0 
0.95 0.6 0 
1 0.6 0 
0 0.65 0 
0.05 0.65 0 
0.1 0.65 0 
0.15 0.65 0 
0.2 0.65 0 
0.25 0.65 0 
0.3 0.65 0 
0.35 0.65 0 
0.4 0.65 0 
0.45 0.65 0 
0.5 0.65 0 
0.55 0.65 0 
0.6 0.65 0 
0.65 0.65 0 
0.7 0.65 0 
0.75 0.65 0 
0.8 0.65 0 
0.85 0.65 0 
0.9 0.65 0 
0.95 0.65 0 
1 0.65 0 
0 0.7 0 
0.05 0.7 0 
0.1 0.7 0 
0.15 0.7 0 
0.2 0.7 0 
0.25 0.7 0 
0.3 0.7 0 
0.35 0.7 0 
0.4 0.7 0 
0.45 0.7 0 
0.5 0.7 0 
0.55 0.7 0 
0.6 0.7 0 
0.65 0.7 0 
0.7 0.7 0 
0.75 0.7 0 
0.8 0.7 0 
0.85 0.7 0 
0.9 0.7 0 
0.95 0.7 0 
1 0.7 0 
0 0.75 0 
0.05 0.75 0 
0.1 0.75 0 
0.15 0.75 0 
0.2 0.75 0 
0.25 0.75 0 
0.3 0.75 0 
0.35 0.75 0 
0.4 0.75 0 
0.45 0.75 0 
0.5 0.75 0 
0.55 0.75 0 
0.6 0.75 0 
0.65 0.75 0 
0.7 0.75 0 
0.75 0.75 0 
0.8 0.75 0 
0.85 0.75 0 
0.9 0.75 0 
0.95 0.75 0 
1 0.75 0 
0 0.8 0 
0.05 0.8 0 
0.1 0.8 0 
0.15 0.8 0 
0.2 0.8 0 
0.25 0.8 0 
0.3 0.8 0 
0.35 0.8 0 
0.4 0.8 0 
0.45 0.8 0 
0.5 0.8 0 
0.55 0.8 0 
0.6 0.8 0 
0.65 0.8 0 
0.7 0.8 0 
0.75 0.8 0 
0.8 0.8 0 
0.85 0.8 0 
0.9 0.8 0 
0.95 0.8 0 
1 0.8 0 
0 0.85 0 
0.05 0.85 0 
0.1 0.85 0 
0.15 0.85 0 
0.2 0.85 0 
0.25 0.85 0 
0.3 0.85 0 
0.35 0.85 0 
0.4 0.85 0 
0.45 0.85 0 
0.5 0.85 0 
0.55 0.85 0 
0.6 0.85 0 
0.65 0.85 0 
0.7 0.85 0 
0.75 0.85 0 
0.8 0.85 0 
0.85 0.85 0 
0.9 0.85 0 
0.95 0.85 0 
1 0.85 0 
0 0.9 0 
0.05 0.9 0 
0.1 0.9 0 
0.15 0.9 0 
0.2 0.9 0 
0.25 0.9 0 
0.3 0.9 0 
0.35 0.9 0 
0.4 0.9 0 
0.45 0.9 0 
0.5 0.9 0 
0.55 0.9 0 
0.6 0.9 0 
0.65 0.9 0 
0.7 0.9 0 
0.75 0.9 0 
0.8 0.9 0 
0.85 0.9 0 
0.9 0.9 0 
0.95 0.9 0 
1 0.9 0 
0 0.95 0 
0.05 0.95 0 
0.1 0.95 0 
0.15 0.95 0 
0.2 0.95 0 
0.25 0.95 0 
0.3 0.95 0 
0.35 0.95 0 
0.4 0.95 0 
0.45 0.95 0 
0.5 0.95 0 
0.55 0.95 0 
0.6 0.95 0 
0.65 0.95 0 
0.7 0.95 0 
0.75 0.95 0 
0.8 0.95 0 
0.85 0.95 0 
0.9 0.95 0 
0.95 0.95 0 
1 0.95 0 
0 1 0 
0.05 1 0 
0.1 1 0 
0.15 1 0 
0.2 1 0 
0.25 1 0 
0.3 1 0 
0.35 1 0 
0.4 1 0 
0.45 1 0 
0.5 1 0 
0.55 1 0 
0.6 1 0 
0.65 1 0 
0.7 1 0 
0.75 1 0 
0.8 1 0 
0.85 1 0 
0.9 1 0 
0.95 1 0 
1 1 0 
CELLS 400 2000
4 0 1 22 21 
4 1 2 23 22 
4 2 3 24 23 
4 3 4 25 24 
4 4 5 26 25 
4 5 6 27 26 
4 6 7 28 27 
4 7 8 29 28 
4 8 9 30 29 
4 9 10 31 30 
4 10 11 32 31 
4 11 12 33 32 
4 12 13 34 33 
4 13 14 35 34 
4 14 15 36 35 
4 15 16 37 36 
4 16 17 38 37 
4 17 18 39 38 
4 18 19 40 39 
4 19 20 41 40 
4 21 22 43 42 
4 22 23 44 43 
4 23 24 45 44 
4 24 25 46 45 
4 25 26 47 46 
4 26 27 48 47 
4 27 28 49 48 
4 28 29 50 49 
4 29 30 51 50 
4 30 31 52 51 
4 31 32 53 52 
4 32 33 54 53 
4 33 34 55 54 
4 34 35 56 55 
4 35 36 57 56 
4 36 37 58 57 
4 37 38 59 58 
4 38 39 60 59 
4 39 40 61 60 
4 40 41 62 61 
4 42 43 64 63 
4 43 44 65 64 
4 44 45 66 65 
4 45 46 67 66 
4 46 47 68 67 
4 47 48 69 68 
4 48 49 70 69 
4 49 50 71 70 
4 50 51 72 71 
4 51 52 73 72 
4 52 53 74 73 
4 53 54 75 74 
4 54 55 76 75 
4 55 56 77 76 
4 56 57 78 77 
4 57 58 79 78 
4 58 59 80 79 
4 59 60 81 80 
4 60 61 82 81 
4 61 62 83 82 
4 63 64 85 84 
4 64 65 86 85 
4 65 66 87 86 
4 66 67 88 87 
4 67 68 89 88 
4 68 69 90 89 
4 69 70 91 90 
4 70 71 92 91 
4 71 72 93 92 
4 72 73 94 93 
4 73 74 95 94 
4 74 75 96 95 
4 75 76 97 96 
4 76 77 98 97 
4 77 78 99 98 
4 78 79 100 99 
4 79 80 101 100 
4 80 81 102 101 
4 81 82 103 102 
4 82 83 104 103 
4 84 85 106 105 
4 85 86 107 106 
4 86 87 108 107 
4 87 88 109 108 
4 88 89 110 109 
4 89 90 111 110 
4 90 91 112 111 
4 91 92 113 112 
4 92 93 114 113 
4 93 94 115 114 
4 94 95 116 115 
4 95 96 117 116 
4 96 97 118 117 
4 97 98 119 118 
4 98 99 120 119 
4 99 100 121 120 
4 100 101 122 121 
4 101 102 123 122 
4 102 103 124 123 
4 103 104 125 124 
4 105 106 127 126 
4 106 107 128 127 
4 107 108 129 128 
4 108 109 130 129 
4 109 110 131 130 
4 110 111 132 131 
4 111 112 133 132 
4 112 113 134 133 
4 113 114 135 134 
4 114 115 136 135 
4 115 116 137 136 
4 116 117 138 137 
4 117 118 139 138 
4 118 119 140 139 
4 119 120 141 140 
4 120 121 142 141 
4 121 122 143 142 
4 122 123 144 143 
4 123 124 145 144 
4 124 125 146 145 
4 126 127 148 147 
4 127 128 149 148 
4 128 129 150 149 
4 129 130 151 150 
4 130 131 152 151 
4 131 132 153 152 
4 132 133 154 153 
4 133 134 155 154 
4 134 135 156 155 
4 135 136 157 156 
4 136 137 158 157 
4 137 138 159 158 
4 138 139 160 159 
4 139 140 161 160 
4 140 141 162 161 
4 141 142 163 162 
4 142 143 164 163 
4 143 144 165 164 
4 144 145 166 165 
4 145 146 167 166 
4 147 148 169 168 
4 148 149 170 169 
4 149 150 171 170 
4 150 151 172 171 
4 151 152 173 172 
4 152 153 174 173 
4 153 154 175 174 
4 154 155 176 175 
4 155 156 177 176 
4 156 157 178 177 
4 157 158 179 178 
4 158 159 180 179 
4 159 160 181 180 
4 160 161 182 181 
4 161 162 183 182 
4 162 163 184 183 
4 163 164 185 184 
4 164 165 186 185 
4 165 166 187 186 
4 166 167 188 187 
4 168 169 190 189 
4 169 170 191 190 
4 170 171 192 191 
4 171 172 193 192 
4 172 173 194 193 
4 173 174 195 194 
4 174 175 196 195 
4 175 176 197 196 
4 176 177 198 197 
4 177 178 199 198 
4 178 179 200 199 
4 179 180 201 200 
4 180 181 202 201 
4 181 182 203 202 
4 182 183 204 203 
4 183 184 205 204 
4 184 185 206 205 
4 185 186 207 206 
4 186 187 208 207 
4 187 188 209 208 
4 189 190 211 210 
4 190 191 212 211 
4 191 192 213 212 
4 192 193 214 213 
4 193 194 215 214 
4 194 195 216 215 
4 195 196 217 216 
4 196 197 218 217 
4 197 198 219 218 
4 198 199 220 219 
4 199 200 221 220 
4 200 201 222 221 
4 201 202 223 222 
4 202 203 224 223 
4 203 204 225 224 
4 204 205 226 225 
4 205 206 227 226 
4 206 207 228 227 
4 207 208 229 228 
4 208 209 230 229 
4 210 211 232 231 
4 211 212 233 232 
4 212 213 234 233 
4 213 214 235 234 
4 214 215 236 235 
4 215 216 237 236 
4 216 217 238 237 
4 217 218 239 238 
4 218 219 240 239 
4 219 220 241 240 
4 220 221 242 241 
4 221 222 243 242 
4 222 223 244 243 
4 223 224 245 244 
4 224 225 246 245 
4 225 226 247 246 
4 226 227 248 247 
4 227 228 249 248 
4 228 229 250 249 
4 229 230 251 250 
4 231 232 253 252 
4 232 233 254 253 
4 233 234 255 254 
4 234 235 256 255 
4 235 236 257 256 
4 236 237 258 257 
4 237 238 259 258 
4 238 239 260 259 
4 239 240 261 260 
4 240 241 262 261 
4 241 242 263 262 
4 242 243 264 263 
4 243 244 265 264 
4 244 245 266 265 
4 245 246 267 266 
4 246 247 268 267 
4 247 248 269 268 
4 248 249 270 269 
4 249 250 271 270 
4 250 251 272 271 
4 252 253 274 273 
4 253 254 275 274 
4 254 255 276 275 
4 255 256 277 276 
4 256 257 278 277 
4 257 258 279 278 
4 258 259 280 279 
4 259 260 281 280 
4 260 261 282 281 
4 261 262 283 282 
4 262 263 284 283 
4 263 264 285 284 
4 264 265 286 285 
4 265 266 287 286 
4 266 267 288 287 
4 267 268 289 288 
4 268 269 290 289 
4 269 270 291 290 
4 270 271 292 291 
4 271 272 293 292 
4 273 274 295 294 
4 274 275 296 295 
4 275 276 297 296 
4 276 277 298 297 
4 277 278 299 298 
4 278 279 300 299 
4 279 280 301 300 
4 280 281 302 301 
4 281 282 303 302 
4 282 283 304 303 
4 283 284 305 304 
4 284 285 306 305 
4 285 286 307 306 
4 286 287 308 307 
4 287 288 309 308 
4 288 289 310 309 
4 289 290 311 310 
4 290 291 312 311 
4 291 292 313 312 
4 292 293 314 313 
4 294 295 316 315 
4 295 296 317 316 
4 296 297 318 317 
4 297 298 319 318 
4 298 299 320 319 
4 299 300 321 320 
4 300 301 322 321 
4 301 302 323 322 
4 302 303 324 323 
4 303 304 325 324 
4 304 305 326 325 
4 305 306 327 326 
4 306 307 328 327 
4 307 308 329 328 
4 308 309 330 329 
4 309 310 331 330 
4 310 311 332 331 
4 311 312 333 332 
4 312 313 334 333 
4 313 314 335 334 
4 315 316 337 336 
4 316 317 338 337 
4 317 318 339 338 
4 318 319 340 339 
4 319 320 341 340 
4 320 321 342 341 
4 321 322 343 342 
4 322 323 344 343 
4 323 324 345 344 
4 324 325 346 345 
4 325 326 347 346 
4 326 327 348 347 
4 327 328 349 348 
4 328 329 350 349 
4 329 330 351 350 
4 330 331 352 351 
4 331 332 353 352 
4 332 333 354 353 
4 333 334 355 354 
4 334 335 356 355 
4 336 337 358 357 
4 337 338 359 358 
4 338 339 360 359 
4 339 340 361 360 
4 340 341 362 361 
4 341 342 363 362 
4 342 343 364 363 
4 343 344 365 364 
4 344 345 366 365 
4 345 346 367 366 
4 346 347 368 367 
4 347 348 369 368 
4 348 349 370 369 
4 349 350 371 370 
4 350 351 372 371 
4 351 352 373 372 
4 352 353 374 373 
4 353 354 375 374 
4 354 355 376 375 
4 355 356 377 376 
4 357 358 379 378 
4 358 359 380 379 
4 359 360 381 380 
4 360 361 382 381 
4 361 362 383 382 
4 362 363 384 383 
4 363 364 385 384 
4 364 365 386 385 
4 365 366 387 386 
4 366 367 388 387 
4 367 368 389 388 
4 368 369 390 389 
4 369 370 391 390 
4 370 371 392 391 
4 371 372 393 392 
4 372 373 394 393 
4 373 374 395 394 
4 374 375 396 395 
4 375 376 397 396 
4 376 377 398 397 
4 378 379 400 399 
4 379 380 401 400 
4 380 381 402 401 
4 381 382 403 402 
4 382 383 404 403 
4 383 384 405 404 
4 384 385 406 405 
4 385 386 407 406 
4 386 387 408 407 
4 387 388 409 408 
4 388 389 410 409 
4 389 390 411 410 
4 390 391 412 411 
4 391 392 413 412 
4 392 393 414 413 
4 393 394 415 414 
4 394 395 416 415 
4 395 396 417 416 
4 396 397 418 417 
4 397 398 419 418 
4 399 400 421 420 
4 400 401 422 421 
4 401 402 423 422 
4 402 403 424 423 
4 403 404 425 424 
4 404 405 426 425 
4 405 406 427 426 
4 406 407 428 427 
4 407 408 429 428 
4 408 409 430 429 
4 409 410 431 430 
4 410 411 432 431 
4 411 412 433 432 
4 412 413 434 433 
4 413 414 435 434 
4 414 415 436 435 
4 415 416 437 436 
4 416 417 438 437 
4 417 418 439 438 
4 418 419 440 439 
CELL_TYPES 400
9
9
9
9
9
9
9
9
9
9
9
9
9
9
9
9
9
9
9
9
9
9
9
9
9
9
9
9
9
9
9
9
9
9
9
9
9
9
9
9
9
9
9
9
9
9
9
9
9
9
9
9
9
9
9
9
9
9
9
9
9
9
9
9
9
9
9
9
9
9
9
9
9
9
9
9
9
9
9
9
9
9
9
9
9
9
9
9
9
9
9
9
9
9
9
9
9
9
9
9
9
9
9
9
9
9
9
9
9
9
9
9
9
9
9
9
9
9
9
9
9
9
9
9
9
9
9
9
9
9
9
9
9
9
9
9
9
9
9
9
9
9
9
9
9
9
9
9
9
9
9
9
9
9
9
9
9
9
9
9
9
9
9
9
9
9
9
9
9
9
9
9
9
9
9
9
9
9
9
9
9
9
9
9
9
9
9
9
9
9
9
9
9
9
9
9
9
9
9
9
9
9
9
9
9
9
9
9
9
9
9
9
9
9
9
9
9
9
9
9
9
9
9
9
9
9
9
9
9
9
9
9
9
9
9
9
9
9
9
9
9
9
9
9
9
9
9
9
9
9
9
9
9
9
9
9
9
9
9
9
9
9
9
9
9
9
9
9
9
9
9
9
9
9
9
9
9
9
9
9
9
9
9
9
9
9
9
9
9
9
9
9
9
9
9
9
9
9
9
9
9
9
9
9
9
9
9
9
9
9
9
9
9
9
9
9
9
9
9
9
9
9
9
9
9
9
9
9
9
9
9
9
9
9
9
9
9
9
9
9
9
9
9
9
9
9
9
9
9
9
9
9
9
9
9
9
9
9
9
9
9
9
9
9
9
9
9
9
9
9
9
9
9
9
9
9
9
9
9
9
9
9
9
9
9
9
9
9
9
9
9
9
9
9
9
9
9
9
9
9
POINT_DATA 441
VECTORS disp float 
0 0 0 
0.0121573 0.0115456 0 
0.0212928 0.0181795 0 
0.0296777 0.0227835 0 
0.0378198 0.0261679 0 
0.0459047 0.0287068 0 
0.0540166 0.0306235 0 
0.0621964 0.0320699 0 
0.0704627 0.0331564 0 
0.0788214 0.0339665 0 
0.0872712 0.0345646 0 
0.0958066 0.0350011 0 
0.104419 0.0353151 0 
0.1131 0.0355375 0 
0.12184 0.035692 0 
0.130629 0.0357971 0 
0.139457 0.0358668 0 
0.148316 0.0359113 0 
0.157198 0.0359382 0 
0.166096 0.0359525 0 
0.175 0.0359569 0 
0 0 0 
0.00852665 0.00815828 0 
0.0179217 0.0146523 0 
0.0269212 0.0193605 0 
0.0356248 0.0228175 0 
0.0441744 0.0253878 0 
0.0526622 0.0273082 0 
0.0611433 0.0287419 0 
0.0696497 0.0298067 0 
0.0781987 0.0305911 0 
0.0867984 0.0311626 0 
0.095451 0.0315734 0 
0.104155 0.0318638 0 
0.112906 0.0320653 0 
0.121699 0.0322018 0 
0.130528 0.032292 0 
0.139387 0.0323496 0 
0.14827 0.032385 0 
0.15717 0.0324055 0 
0.166082 0.0324159 0 
0.175 0.0324191 0 
0 0 0 
0.00762701 0.00621043 0 
0.0161811 0.0117792 0 
0.0250324 0.016189 0 
0.0338726 0.0195479 0 
0.0426475 0.0220776 0 
0.0513729 0.0239719 0 
0.0600757 0.0253817 0 
0.0687778 0.0264225 0 
0.0774948 0.0271828 0 
0.086236 0.027731 0 
0.095006 0.02812 0 
0.103806 0.0283907 0 
0.112636 0.0285749 0 
0.121493 0.0286966 0 
0.130374 0.0287745 0 
0.139275 0.0288224 0 
0.148192 0.0288503 0 
0.157121 0.0288655 0 
0.166059 0.0288729 0 
0.175 0.028875 0 
0 0 0 
0.00729352 0.00491072 0 
0.0153409 0.0095073 0 
0.0238682 0.013389 0 
0.0326087 0.0164791 0 
0.0414222 0.0188651 0 
0.0502551 0.0206743 0 
0.0590924 0.0220275 0 
0.0679341 0.0230266 0 
0.0767841 0.0237539 0 
0.0856462 0.0242751 0 
0.094523 0.0246415 0 
0.103416 0.0248935 0 
0.112325 0.0250622 0 
0.121248 0.0251714 0 
0.130186 0.0252392 0 
0.139135 0.0252792 0 
0.148093 0.0253013 0 
0.157058 0.0253125 0 
0.166028 0.0253175 0 
0.175 0.0253189 0 
0 0 0 
0.00713731 0.00392355 0 
0.0149011 0.00765938 0 
0.0231606 0.0109392 0 
0.0317378 0.0136491 0 
0.0404938 0.0157989 0 
0.0493445 0.0174578 0 
0.0582452 0.0187113 0 
0.0671737 0.0196413 0 
0.0761193 0.020319 0 
0.0850769 0.0208035 0 
0.0940441 0.0211426 0 
0.103019 0.0213738 0 
0.112002 0.0215268 0 
0.12099 0.0216242 0 
0.129984 0.0216833 0 
0.138982 0.021717 0 
0.147984 0.0217346 0 
0.156988 0.0217428 0 
0.165993 0.0217461 0 
0.175 0.0217469 0 
0 0 0 
0.00705446 0.00310778 0 
0.0146519 0.00608969 0 
0.0227212 0.00876882 0 
0.0311461 0.0110434 0 
0.0398131 0.0128913 0 
0.0486346 0.014343 0 
0.0575514 0.0154535 0 
0.0665257 0.0162836 0 
0.0755341 0.0168909 0 
0.0845622 0.0173255 0 
0.0936012 0.017629 0 
0.102646 0.0178352 0 
0.111692 0.0179706 0 
0.120739 0.0180558 0 
0.129786 0.0181066 0 
0.138831 0.0181348 0 
0.147874 0.0181488 0 
0.156917 0.018155 0 
0.165959 0.0181571 0 
0.175 0.0181576 0 
0 0 0 
0.00700748 0.00239559 0 
0.0145028 0.00470311 0 
0.0224421 0.00680559 0 
0.0307462 0.00862455 0 
0.0393258 0.0101301 0 
0.0481008 0.0113316 0 
0.0570081 0.0122617 0 
0.0660011 0.0129628 0 
0.0750472 0.0134784 0 
0.0841241 0.0138484 0 
0.0932171 0.0141069 0 
0.102316 0.0142822 0 
0.111416 0.0143968 0 
0.120513 0.0144685 0 
0.129605 0.0145107 0 
0.138692 0.0145336 0 
0.147774 0.0145447 0 
0.156852 0.0145492 0 
0.165926 0.0145506 0 
0.175 0.0145509 0 
0 0 0 
0.00698003 0.00174936 0 
0.0144115 0.00343804 0 
0.022264 0.00499002 0 
0.0304796 0.00634976 0 
0.0389873 0.00749061 0 
0.0477162 0.00841238 0 
0.0566039 0.00913317 0 
0.0656002 0.00968066 0 
0.0746668 0.0100854 0 
0.0837756 0.0103768 0 
0.0929068 0.0105807 0 
0.102047 0.0107189 0 
0.111188 0.0108091 0 
0.120324 0.0108653 0 
0.129453 0.0108982 0 
0.138574 0.0109159 0 
0.147688 0.0109242 0 
0.156796 0.0109274 0 
0.165899 0.0109283 0 
0.175 0.0109285 0 
0 0 0 
0.00696421 0.00114536 0 
0.0143567 0.00225233 0 
0.0221539 0.00327502 0 
0.0303101 0.00417824 0 
0.0387659 0.00494299 0 
0.0474578 0.00556631 0 
0.056326 0.00605739 0 
0.0653192 0.00643262 0 
0.0743957 0.00671125 0 
0.0835237 0.00691239 0 
0.09268 0.00705339 0 
0.101848 0.00714903 0 
0.111018 0.00721144 0 
0.120183 0.00725023 0 
0.129339 0.00727284 0 
0.138486 0.00728489 0 
0.147623 0.00729052 0 
0.156753 0.00729264 0 
0.165878 0.00729319 0 
0.175 0.00729325 0 
0 0 0 
0.00695598 0.000566709 0 
0.0143273 0.00111477 0 
0.0220938 0.00162253 0 
0.0302159 0.00207297 0 
0.0386407 0.00245635 0 
0.0473092 0.00277044 0 
0.0561638 0.00301904 0 
0.065153 0.0032097 0 
0.0742336 0.00335167 0 
0.0833717 0.00345437 0 
0.092542 0.00352645 0 
0.101727 0.00357537 0 
0.110914 0.00360729 0 
0.120095 0.00362711 0 
0.129268 0.00363865 0 
0.13843 0.00364478 0 
0.147583 0.00364763 0 
0.156727 0.00364868 0 
0.165865 0.00364894 0 
0.175 0.00364896 0 
0 0 0 
0.00695343 -1.26259e-17 0 
0.0143181 -2.5455e-17 0 
0.0220747 -3.72593e-17 0 
0.0301857 -4.5218e-17 0 
0.0386001 -5.74559e-17 0 
0.0472607 -6.79123e-17 0 
0.0561106 -7.15235e-17 0 
0.065098 -7.87199e-17 0 
0.0741797 -7.74188e-17 0 
0.0833209 -8.51471e-17 0 
0.0924958 -7.22892e-17 0 
0.101686 -8.89791e-17 0 
0.110878 -9.65753e-17 0 
0.120066 -1.12686e-16 0 
0.129244 -1.19357e-16 0 
0.138412 -1.13174e-16 0 
0.147569 -1.09515e-16 0 
0.156718 -1.22162e-16 0 
0.165861 -1.13841e-16 0 
0.175 -1.02294e-16 0 
0 0 0 
0.00695598 -0.000566709 0 
0.0143273 -0.00111477 0 
0.0220938 -0.00162253 0 
0.0302159 -0.00207297 0 
0.0386407 -0.00245635 0 
0.0473092 -0.00277044 0 
0.0561638 -0.00301904 0 
0.065153 -0.0032097 0 
0.0742336 -0.00335167 0 
0.0833717 -0.00345437 0 
0.092542 -0.00352645 0 
0.101727 -0.00357537 0 
0.110914 -0.00360729 0 
0.120095 -0.00362711 0 
0.129268 -0.00363865 0 
0.13843 -0.00364478 0 
0.147583 -0.00364763 0 
0.156727 -0.00364868 0 
0.165865 -0.00364894 0 
0.175 -0.00364896 0 
0 0 0 
0.00696421 -0.00114536 0 
0.0143567 -0.00225233 0 
0.0221539 -0.00327502 0 
0.0303101 -0.00417824 0 
0.0387659 -0.00494299 0 
0.0474578 -0.00556631 0 
0.056326 -0.00605739 0 
0.0653192 -0.00643262 0 
0.0743957 -0.00671125 0 
0.0835237 -0.00691239 0 
0.09268 -0.00705339 0 
0.101848 -0.00714903 0 
0.111018 -0.00721144 0 
0.120183 -0.00725023 0 
0.129339 -0.00727284 0 
0.138486 -0.00728489 0 
0.147623 -0.00729052 0 
0.156753 -0.00729264 0 
0.165878 -0.00729319 0 
0.175 -0.00729325 0 
0 0 0 
0.00698003 -0.00174936 0 
0.0144115 -0.00343804 0 
0.022264 -0.00499002 0 
0.0304796 -0.00634976 0 
0.0389873 -0.00749061 0 
0.0477162 -0.00841238 0 
0.0566039 -0.00913317 0 
0.0656002 -0.00968066 0 
0.0746668 -0.0100854 0 
0.0837756 -0.0103768 0 
0.0929068 -0.0105807 0 
0.102047 -0.0107189 0 
0.111188 -0.0108091 0 
0.120324 -0.0108653 0 
0.129453 -0.0108982 0 
0.138574 -0.0109159 0 
0.147688 -0.0109242 0 
0.156796 -0.0109274 0 
0.165899 -0.0109283 0 
0.175 -0.0109285 0 
0 0 0 
0.00700748 -0.00239559 0 
0.0145028 -0.00470311 0 
0.0224421 -0.00680559 0 
0.0307462 -0.00862455 0 
0.0393258 -0.0101301 0 
0.0481008 -0.0113316 0 
0.0570081 -0.0122617 0 
0.0660011 -0.0129628 0 
0.0750472 -0.0134784 0 
0.0841241 -0.0138484 0 
0.0932171 -0.0141069 0 
0.102316 -0.0142822 0 
0.111416 -0.0143968 0 
0.120513 -0.0144685 0 
0.129605 -0.0145107 0 
0.138692 -0.0145336 0 
0.147774 -0.0145447 0 
0.156852 -0.0145492 0 
0.165926 -0.0145506 0 
0.175 -0.0145509 0 
0 0 0 
0.00705446 -0.00310778 0 
0.0146519 -0.00608969 0 
0.0227212 -0.00876882 0 
0.0311461 -0.0110434 0 
0.0398131 -0.0128913 0 
0.0486346 -0.014343 0 
0.0575514 -0.0154535 0 
0.0665257 -0.0162836 0 
0.0755341 -0.0168909 0 
0.0845622 -0.0173255 0 
0.0936012 -0.017629 0 
0.102646 -0.0178352 0 
0.111692 -0.0179706 0 
0.120739 -0.0180558 0 
0.129786 -0.0181066 0 
0.138831 -0.0181348 0 
0.147874 -0.0181488 0 
0.156917 -0.018155 0 
0.165959 -0.0181571 0 
0.175 -0.0181576 0 
0 0 0 
0.00713731 -0.00392355 0 
0.0149011 -0.00765938 0 
0.0231606 -0.0109392 0 
0.0317378 -0.0136491 0 
0.0404938 -0.0157989 0 
0.0493445 -0.0174578 0 
0.0582452 -0.0187113 0 
0.0671737 -0.0196413 0 
0.0761193 -0.020319 0 
0.0850769 -0.0208035 0 
0.0940441 -0.0211426 0 
0.103019 -0.0213738 0 
0.112002 -0.0215268 0 
0.12099 -0.0216242 0 
0.129984 -0.0216833 0 
0.138982 -0.021717 0 
0.147984 -0.0217346 0 
0.156988 -0.0217428 0 
0.165993 -0.0217461 0 
0.175 -0.0217469 0 
0 0 0 
0.00729352 -0.00491072 0 
0.0153409 -0.0095073 0 
0.0238682 -0.013389 0 
0.0326087 -0.0164791 0 
0.0414222 -0.0188651 0 
0.0502551 -0.0206743 0 
0.0590924 -0.0220275 0 
0.0679341 -0.0230266 0 
0.0767841 -0.0237539 0 
0.0856462 -0.0242751 0 
0.094523 -0.0246415 0 
0.103416 -0.0248935 0 
0.112325 -0.0250622 0 
0.121248 -0.0251714 0 
0.130186 -0.0252392 0 
0.139135 -0.0252792 0 
0.148093 -0.0253013 0 
0.157058 -0.0253125 0 
0.166028 -0.0253175 0 
0.175 -0.0253189 0 
0 0 0 
0.00762701 -0.00621043 0 
0.0161811 -0.0117792 0 
0.0250324 -0.016189 0 
0.0338726 -0.0195479 0 
0.0426475 -0.0220776 0 
0.0513729 -0.0239719 0 
0.0600757 -0.0253817 0 
0.0687778 -0.0264225 0 
0.0774948 -0.0271828 0 
0.086236 -0.027731 0 
0.095006 -0.02812 0 
0.103806 -0.0283907 0 
0.112636 -0.0285749 0 
0.121493 -0.0286966 0 
0.130374 -0.0287745 0 
0.139275 -0.0288224 0 
0.148192 -0.0288503 0 
0.157121 -0.0288655 0 
0.166059 -0.0288729 0 
0.175 -0.028875 0 
0 0 0 
0.00852665 -0.00815828 0 
0.0179217 -0.0146523 0 
0.0269212 -0.0193605 0 
0.0356248 -0.0228175 0 
0.0441744 -0.0253878 0 
0.0526622 -0.0273082 0 
0.0611433 -0.0287419 0 
0.0696497 -0.0298067 0 
0.0781987 -0.0305911 0 
0.0867984 -0.0311626 0 
0.095451 -0.0315734 0 
0.104155 -0.0318638 0 
0.112906 -0.0320653 0 
0.121699 -0.0322018 0 
0.130528 -0.032292 0 
0.139387 -0.0323496 0 
0.14827 -0.032385 0 
0.15717 -0.0324055 0 
0.166082 -0.0324159 0 
0.175 -0.0324191 0 
0 0 0 
0.0121573 -0.0115456 0 
0.0212928 -0.0181795 0 
0.0296777 -0.0227835 0 
0.0378198 -0.0261679 0 
0.0459047 -0.0287068 0 
0.0540166 -0.0306235 0 
0.0621964 -0.0320699 0 
0.0704627 -0.0331564 0 
0.0788214 -0.0339665 0 
0.0872712 -0.0345646 0 
0.0958066 -0.0350011 0 
0.104419 -0.0353151 0 
0.1131 -0.0355375 0 
0.12184 -0.035692 0 
0.130629 -0.0357971 0 
0.139457 -0.0358668 0 
0.148316 -0.0359113 0 
0.157198 -0.0359382 0 
0.166096 -0.0359525 0 
0.175 -0.0359569 0 
CELL_DATA 400
TENSORS sigma float 
222.959 65.353 0 65.353 30.2436 0 0 0 63.9424 
196.595 30.428 0 30.428 9.16536 0 0 0 53.1534 
182.667 17.8129 0 17.8129 4.11024 0 0 0 48.7251 
176.1 11.5701 0 11.5701 2.22566 0 0 0 46.7223 
173.321 7.87473 0 7.87473 1.32457 0 0 0 45.8308 
172.563 5.46016 0 5.46016 0.827688 0 0 0 45.508 
172.908 3.79357 0 3.79357 0.527772 0 0 0 45.4916 
173.843 2.60937 0 2.60937 0.335077 0 0 0 45.6403 
175.065 1.75742 0 1.75742 0.20561 0 0 0 45.8725 
176.388 1.14415 0 1.14415 0.11583 0 0 0 46.1393 
177.698 0.706715 0 0.706715 0.0522457 0 0 0 46.4111 
178.927 0.400477 0 0.400477 0.00666246 0 0 0 46.67 
180.035 0.192533 0 0.192533 -0.0261681 0 0 0 46.9059 
181.004 0.0580508 0 0.0580508 -0.0497693 0 0 0 47.1133 
181.825 -0.0219532 0 -0.0219532 -0.0666022 0 0 0 47.2898 
182.498 -0.0620768 0 -0.0620768 -0.078436 0 0 0 47.435 
183.026 -0.0735902 0 -0.0735902 -0.0865598 0 0 0 47.5494 
183.416 -0.0652521 0 -0.0652521 -0.0919068 0 0 0 47.634 
183.673 -0.0439822 0 -0.0439822 -0.0951286 0 0 0 47.6896 
183.8 -0.0154418 0 -0.0154418 -0.0966389 0 0 0 47.7172 
188.195 53.1733 0 53.1733 56.9897 0 0 0 66.2464 
192.174 39.8254 0 39.8254 24.5444 0 0 0 57.0844 
188.073 25.1427 0 25.1427 12.0953 0 0 0 52.5149 
183.693 15.8339 0 15.8339 6.75619 0 0 0 49.9365 
180.729 10.0385 0 10.0385 4.11011 0 0 0 48.4501 
179.101 6.31368 0 6.31368 2.63418 0 0 0 47.6091 
178.442 3.85552 0 3.85552 1.73505 0 0 0 47.1623 
178.424 2.21211 0 2.21211 1.1509 0 0 0 46.9591 
178.801 1.11452 0 1.11452 0.753652 0 0 0 46.9056 
179.4 0.392892 0 0.392892 0.475094 0 0 0 46.9417 
180.103 -0.0655423 0 -0.0655423 0.276109 0 0 0 47.0281 
180.829 -0.338536 0 -0.338536 0.132711 0 0 0 47.139 
181.527 -0.481044 0 -0.481044 0.0292655 0 0 0 47.2576 
182.165 -0.532445 0 -0.532445 -0.0449635 0 0 0 47.373 
182.724 -0.521071 0 -0.521071 -0.0976528 0 0 0 47.4782 
183.193 -0.467236 0 -0.467236 -0.134432 0 0 0 47.5692 
183.569 -0.385378 0 -0.385378 -0.159464 0 0 0 47.6436 
183.849 -0.285646 0 -0.285646 -0.175791 0 0 0 47.7 
184.035 -0.175152 0 -0.175152 -0.185549 0 0 0 47.7378 
184.128 -0.0589733 0 -0.0589733 -0.190097 0 0 0 47.7567 
176.249 42.2627 0 42.2627 60.0425 0 0 0 65.1486 
183.739 36.5538 0 36.5538 36.826 0 0 0 59.5419 
186.211 26.8621 0 26.8621 21.4546 0 0 0 55.294 
185.675 18.2393 0 18.2393 12.9051 0 0 0 52.4797 
184.359 11.8791 0 11.8791 8.09437 0 0 0 50.6364 
183.198 7.43864 0 7.43864 5.24 0 0 0 49.4336 
182.436 4.39636 0 4.39636 3.44962 0 0 0 48.6575 
182.062 2.33857 0 2.33857 2.27326 0 0 0 48.1683 
181.992 0.971583 0 0.971583 1.47315 0 0 0 47.8725 
182.131 0.090505 0 0.090505 0.91626 0 0 0 47.7066 
182.399 -0.448619 0 -0.448619 0.523618 0 0 0 47.6267 
182.734 -0.74805 0 -0.74805 0.245565 0 0 0 47.6022 
183.092 -0.880981 0 -0.880981 0.0491934 0 0 0 47.6117 
183.441 -0.899883 0 -0.899883 -0.0882919 0 0 0 47.6403 
183.762 -0.84219 0 -0.84219 -0.183206 0 0 0 47.6775 
184.039 -0.734308 0 -0.734308 -0.247458 0 0 0 47.7162 
184.267 -0.594547 0 -0.594547 -0.289783 0 0 0 47.7516 
184.439 -0.435333 0 -0.435333 -0.316505 0 0 0 47.7804 
184.555 -0.26494 0 -0.26494 -0.332019 0 0 0 47.8006 
184.613 -0.0888855 0 -0.0888855 -0.339103 0 0 0 47.811 
170.991 33.8512 0 33.8512 60.2497 0 0 0 64.4066 
178.267 30.961 0 30.961 42.8492 0 0 0 60.5619 
182.923 24.917 0 24.917 28.6289 0 0 0 57.0852 
184.98 18.2742 0 18.2742 18.8166 0 0 0 54.3827 
185.483 12.5484 0 12.5484 12.4289 0 0 0 52.3976 
185.326 8.12508 0 8.12508 8.27639 0 0 0 50.9709 
184.995 4.89516 0 4.89516 5.52438 0 0 0 49.9573 
184.702 2.6219 0 2.6219 3.65819 0 0 0 49.2446 
184.513 1.07457 0 1.07457 2.36821 0 0 0 48.7497 
184.432 0.0630448 0 0.0630448 1.46515 0 0 0 48.4121 
184.437 -0.560122 0 -0.560122 0.829352 0 0 0 48.1872 
184.502 -0.906249 0 -0.906249 0.382109 0 0 0 48.0423 
184.603 -1.05807 0 -1.05807 0.0696433 0 0 0 47.9533 
184.72 -1.07625 0 -1.07625 -0.146014 0 0 0 47.9025 
184.839 -1.00464 0 -1.00464 -0.292302 0 0 0 47.8768 
184.949 -0.874354 0 -0.874354 -0.389307 0 0 0 47.8668 
185.043 -0.706987 0 -0.706987 -0.451737 0 0 0 47.8655 
185.117 -0.517161 0 -0.517161 -0.490193 0 0 0 47.8683 
185.167 -0.31454 0 -0.31454 -0.51201 0 0 0 47.8717 
185.193 -0.105493 0 -0.105493 -0.521805 0 0 0 47.8739 
168.357 27.0333 0 27.0333 60.1339 0 0 0 64.0291 
174.959 25.349 0 25.349 46.0206 0 0 0 61.0646 
180.143 21.4866 0 21.4866 33.4409 0 0 0 58.1972 
183.495 16.6802 0 16.6802 23.5821 0 0 0 55.7336 
185.323 12.0362 0 12.0362 16.3885 0 0 0 53.7535 
186.159 8.11534 0 8.11534 11.2913 0 0 0 52.217 
186.447 5.06072 0 5.06072 7.70281 0 0 0 51.0482 
186.468 2.80857 0 2.80857 5.16945 0 0 0 50.1708 
186.379 1.22287 0 1.22287 3.37312 0 0 0 49.5193 
186.259 0.159046 0 0.159046 2.09672 0 0 0 49.0408 
186.144 -0.511236 0 -0.511236 1.19141 0 0 0 48.6935 
186.048 -0.893081 0 -0.893081 0.553325 0 0 0 48.4448 
185.973 -1.06877 0 -1.06877 0.10843 0 0 0 48.2697 
185.917 -1.10072 0 -1.10072 -0.19704 0 0 0 48.1485 
185.877 -1.03508 0 -1.03508 -0.402628 0 0 0 48.0665 
185.849 -0.905081 0 -0.905081 -0.53756 0 0 0 48.0125 
185.83 -0.734091 0 -0.734091 -0.623327 0 0 0 47.978 
185.818 -0.538061 0 -0.538061 -0.675434 0 0 0 47.9569 
185.811 -0.327645 0 -0.327645 -0.7046 0 0 0 47.9451 
185.808 -0.10995 0 -0.10995 -0.71756 0 0 0 47.9398 
166.928 21.193 0 21.193 60.0227 0 0 0 63.8491 
172.936 20.1228 0 20.1228 47.8705 0 0 0 61.3677 
178.115 17.5831 0 17.5831 36.6186 0 0 0 58.9094 
182.031 14.1893 0 14.1893 27.1328 0 0 0 56.674 
184.672 10.6459 0 10.6459 19.6461 0 0 0 54.7612 
186.28 7.44127 0 7.44127 13.9657 0 0 0 53.1884 
187.159 4.80188 0 4.80188 9.74649 0 0 0 51.9284 
187.565 2.76966 0 2.76966 6.64819 0 0 0 50.9371 
187.683 1.28953 0 1.28953 4.38984 0 0 0 50.1682 
187.636 0.268676 0 0.268676 2.75527 0 0 0 49.5789 
187.502 -0.391031 0 -0.391031 1.58233 0 0 0 49.1322 
187.329 -0.778088 0 -0.778088 0.750078 0 0 0 48.7975 
187.146 -0.966007 0 -0.966007 0.168039 0 0 0 48.5496 
186.971 -1.01277 0 -1.01277 -0.231728 0 0 0 48.3685 
186.813 -0.962383 0 -0.962383 -0.50031 0 0 0 48.2381 
186.678 -0.847168 0 -0.847168 -0.675981 0 0 0 48.1459 
186.569 -0.690167 0 -0.690167 -0.787105 0 0 0 48.0824 
186.487 -0.507335 0 -0.507335 -0.854229 0 0 0 48.0405 
186.432 -0.309481 0 -0.309481 -0.891579 0 0 0 48.0152 
186.404 -0.103942 0 -0.103942 -0.908097 0 0 0 48.0034 
166.116 15.9754 0 15.9754 59.9493 0 0 0 63.7682 
171.679 15.2732 0 15.2732 49.0235 0 0 0 61.5723 
176.712 13.5929 0 13.5929 38.7245 0 0 0 59.3793 
180.845 11.2549 0 11.2549 29.6681 0 0 0 57.3213 
183.945 8.68705 0 8.68705 22.1425 0 0 0 55.4872 
186.083 6.24679 0 6.24679 16.1412 0 0 0 53.9154 
187.434 4.14779 0 4.14779 11.4906 0 0 0 52.6071 
188.198 2.47246 0 2.47246 7.9593 0 0 0 51.5417 
188.548 1.21586 0 1.21586 5.32006 0 0 0 50.6892 
188.623 0.327448 0 0.327448 3.37514 0 0 0 50.0168 
188.527 -0.259997 0 -0.259997 1.96206 0 0 0 49.4932 