# vtk DataFile Version 2.0
Generated by inSilico's base::io::vtk::LegacyWriter
ASCII
DATASET UNSTRUCTURED_GRID
POINTS 441 float
0 0 0 
0.05 0 0 
0.1 0 0 
0.15 0 0 
0.2 0 0 
0.25 0 0 
0.3 0 0 
0.35 0 0 
0.4 0 0 
0.45 0 0 
0.5 0 0 
0.55 0 0 
0.6 0 0 
0.65 0 0 
0.7 0 0 
0.75 0 0 
0.8 0 0 
0.85 0 0 
0.9 0 0 
0.95 0 0 
1 0 0 
0 0.05 0 
0.05 0.05 0 
0.1 0.05 0 
0.15 0.05 0 
0.2 0.05 0 
0.25 0.05 0 
0.3 0.05 0 
0.35 0.05 0 
0.4 0.05 0 
0.45 0.05 0 
0.5 0.05 0 
0.55 0.05 0 
0.6 0.05 0 
0.65 0.05 0 
0.7 0.05 0 
0.75 0.05 0 
0.8 0.05 0 
0.85 0.05 0 
0.9 0.05 0 
0.95 0.05 0 
1 0.05 0 
0 0.1 0 
0.05 0.1 0 
0.1 0.1 0 
0.15 0.1 0 
0.2 0.1 0 
0.25 0.1 0 
0.3 0.1 0 
0.35 0.1 0 
0.4 0.1 0 
0.45 0.1 0 
0.5 0.1 0 
0.55 0.1 0 
0.6 0.1 0 
0.65 0.1 0 
0.7 0.1 0 
0.75 0.1 0 
0.8 0.1 0 
0.85 0.1 0 
0.9 0.1 0 
0.95 0.1 0 
1 0.1 0 
0 0.15 0 
0.05 0.15 0 
0.1 0.15 0 
0.15 0.15 0 
0.2 0.15 0 
0.25 0.15 0 
0.3 0.15 0 
0.35 0.15 0 
0.4 0.15 0 
0.45 0.15 0 
0.5 0.15 0 
0.55 0.15 0 
0.6 0.15 0 
0.65 0.15 0 
0.7 0.15 0 
0.75 0.15 0 
0.8 0.15 0 
0.85 0.15 0 
0.9 0.15 0 
0.95 0.15 0 
1 0.15 0 
0 0.2 0 
0.05 0.2 0 
0.1 0.2 0 
0.15 0.2 0 
0.2 0.2 0 
0.25 0.2 0 
0.3 0.2 0 
0.35 0.2 0 
0.4 0.2 0 
0.45 0.2 0 
0.5 0.2 0 
0.55 0.2 0 
0.6 0.2 0 
0.65 0.2 0 
0.7 0.2 0 
0.75 0.2 0 
0.8 0.2 0 
0.85 0.2 0 
0.9 0.2 0 
0.95 0.2 0 
1 0.2 0 
0 0.25 0 
0.05 0.25 0 
0.1 0.25 0 
0.15 0.25 0 
0.2 0.25 0 
0.25 0.25 0 
0.3 0.25 0 
0.35 0.25 0 
0.4 0.25 0 
0.45 0.25 0 
0.5 0.25 0 
0.55 0.25 0 
0.6 0.25 0 
0.65 0.25 0 
0.7 0.25 0 
0.75 0.25 0 
0.8 0.25 0 
0.85 0.25 0 
0.9 0.25 0 
0.95 0.25 0 
1 0.25 0 
0 0.3 0 
0.05 0.3 0 
0.1 0.3 0 
0.15 0.3 0 
0.2 0.3 0 
0.25 0.3 0 
0.3 0.3 0 
0.35 0.3 0 
0.4 0.3 0 
0.45 0.3 0 
0.5 0.3 0 
0.55 0.3 0 
0.6 0.3 0 
0.65 0.3 0 
0.7 0.3 0 
0.75 0.3 0 
0.8 0.3 0 
0.85 0.3 0 
0.9 0.3 0 
0.95 0.3 0 
1 0.3 0 
0 0.35 0 
0.05 0.35 0 
0.1 0.35 0 
0.15 0.35 0 
0.2 0.35 0 
0.25 0.35 0 
0.3 0.35 0 
0.35 0.35 0 
0.4 0.35 0 
0.45 0.35 0 
0.5 0.35 0 
0.55 0.35 0 
0.6 0.35 0 
0.65 0.35 0 
0.7 0.35 0 
0.75 0.35 0 
0.8 0.35 0 
0.85 0.35 0 
0.9 0.35 0 
0.95 0.35 0 
1 0.35 0 
0 0.4 0 
0.05 0.4 0 
0.1 0.4 0 
0.15 0.4 0 
0.2 0.4 0 
0.25 0.4 0 
0.3 0.4 0 
0.35 0.4 0 
0.4 0.4 0 
0.45 0.4 0 
0.5 0.4 0 
0.55 0.4 0 
0.6 0.4 0 
0.65 0.4 0 
0.7 0.4 0 
0.75 0.4 0 
0.8 0.4 0 
0.85 0.4 0 
0.9 0.4 0 
0.95 0.4 0 
1 0.4 0 
0 0.45 0 
0.05 0.45 0 
0.1 0.45 0 
0.15 0.45 0 
0.2 0.45 0 
0.25 0.45 0 
0.3 0.45 0 
0.35 0.45 0 
0.4 0.45 0 
0.45 0.45 0 
0.5 0.45 0 
0.55 0.45 0 
0.6 0.45 0 
0.65 0.45 0 
0.7 0.45 0 
0.75 0.45 0 
0.8 0.45 0 
0.85 0.45 0 
0.9 0.45 0 
0.95 0.45 0 
1 0.45 0 
0 0.5 0 
0.05 0.5 0 
0.1 0.5 0 
0.15 0.5 0 
0.2 0.5 0 
0.25 0.5 0 
0.3 0.5 0 
0.35 0.5 0 
0.4 0.5 0 
0.45 0.5 0 
0.5 0.5 0 
0.55 0.5 0 
0.6 0.5 0 
0.65 0.5 0 
0.7 0.5 0 
0.75 0.5 0 
0.8 0.5 0 
0.85 0.5 0 
0.9 0.5 0 
0.95 0.5 0 
1 0.5 0 
0 0.55 0 
0.05 0.55 0 
0.1 0.55 0 
0.15 0.55 0 
0.2 0.55 0 
0.25 0.55 0 
0.3 0.55 0 
0.35 0.55 0 
0.4 0.55 0 
0.45 0.55 0 
0.5 0.55 0 
0.55 0.55 0 
0.6 0.55 0 
0.65 0.55 0 
0.7 0.55 0 
0.75 0.55 0 
0.8 0.55 0 
0.85 0.55 0 
0.9 0.55 0 
0.95 0.55 0 
1 0.55 0 
0 0.6 0 
0.05 0.6 0 
0.1 0.6 0 
0.15 0.6 0 
0.2 0.6 0 
0.25 0.6 0 
0.3 0.6 0 
0.35 0.6 0 
0.4 0.6 0 
0.45 0.6 0 
0.5 0.6 0 
0.55 0.6 0 
0.6 0.6 0 
0.65 0.6 0 
0.7 0.6 0 
0.75 0.6 0 
0.8 0.6 0 
0.85 0.6 0 
0.9 0.6 0 
0.95 0.6 0 
1 0.6 0 
0 0.65 0 
0.05 0.65 0 
0.1 0.65 0 
0.15 0.65 0 
0.2 0.65 0 
0.25 0.65 0 
0.3 0.65 0 
0.35 0.65 0 
0.4 0.65 0 
0.45 0.65 0 
0.5 0.65 0 
0.55 0.65 0 
0.6 0.65 0 
0.65 0.65 0 
0.7 0.65 0 
0.75 0.65 0 
0.8 0.65 0 
0.85 0.65 0 
0.9 0.65 0 
0.95 0.65 0 
1 0.65 0 
0 0.7 0 
0.05 0.7 0 
0.1 0.7 0 
0.15 0.7 0 
0.2 0.7 0 
0.25 0.7 0 
0.3 0.7 0 
0.35 0.7 0 
0.4 0.7 0 
0.45 0.7 0 
0.5 0.7 0 
0.55 0.7 0 
0.6 0.7 0 
0.65 0.7 0 
0.7 0.7 0 
0.75 0.7 0 
0.8 0.7 0 
0.85 0.7 0 
0.9 0.7 0 
0.95 0.7 0 
1 0.7 0 
0 0.75 0 
0.05 0.75 0 
0.1 0.75 0 
0.15 0.75 0 
0.2 0.75 0 
0.25 0.75 0 
0.3 0.75 0 
0.35 0.75 0 
0.4 0.75 0 
0.45 0.75 0 
0.5 0.75 0 
0.55 0.75 0 
0.6 0.75 0 
0.65 0.75 0 
0.7 0.75 0 
0.75 0.75 0 
0.8 0.75 0 
0.85 0.75 0 
0.9 0.75 0 
0.95 0.75 0 
1 0.75 0 
0 0.8 0 
0.05 0.8 0 
0.1 0.8 0 
0.15 0.8 0 
0.2 0.8 0 
0.25 0.8 0 
0.3 0.8 0 
0.35 0.8 0 
0.4 0.8 0 
0.45 0.8 0 
0.5 0.8 0 
0.55 0.8 0 
0.6 0.8 0 
0.65 0.8 0 
0.7 0.8 0 
0.75 0.8 0 
0.8 0.8 0 
0.85 0.8 0 
0.9 0.8 0 
0.95 0.8 0 
1 0.8 0 
0 0.85 0 
0.05 0.85 0 
0.1 0.85 0 
0.15 0.85 0 
0.2 0.85 0 
0.25 0.85 0 
0.3 0.85 0 
0.35 0.85 0 
0.4 0.85 0 
0.45 0.85 0 
0.5 0.85 0 
0.55 0.85 0 
0.6 0.85 0 
0.65 0.85 0 
0.7 0.85 0 
0.75 0.85 0 
0.8 0.85 0 
0.85 0.85 0 
0.9 0.85 0 
0.95 0.85 0 
1 0.85 0 
0 0.9 0 
0.05 0.9 0 
0.1 0.9 0 
0.15 0.9 0 
0.2 0.9 0 
0.25 0.9 0 
0.3 0.9 0 
0.35 0.9 0 
0.4 0.9 0 
0.45 0.9 0 
0.5 0.9 0 
0.55 0.9 0 
0.6 0.9 0 
0.65 0.9 0 
0.7 0.9 0 
0.75 0.9 0 
0.8 0.9 0 
0.85 0.9 0 
0.9 0.9 0 
0.95 0.9 0 
1 0.9 0 
0 0.95 0 
0.05 0.95 0 
0.1 0.95 0 
0.15 0.95 0 
0.2 0.95 0 
0.25 0.95 0 
0.3 0.95 0 
0.35 0.95 0 
0.4 0.95 0 
0.45 0.95 0 
0.5 0.95 0 
0.55 0.95 0 
0.6 0.95 0 
0.65 0.95 0 
0.7 0.95 0 
0.75 0.95 0 
0.8 0.95 0 
0.85 0.95 0 
0.9 0.95 0 
0.95 0.95 0 
1 0.95 0 
0 1 0 
0.05 1 0 
0.1 1 0 
0.15 1 0 
0.2 1 0 
0.25 1 0 
0.3 1 0 
0.35 1 0 
0.4 1 0 
0.45 1 0 
0.5 1 0 
0.55 1 0 
0.6 1 0 
0.65 1 0 
0.7 1 0 
0.75 1 0 
0.8 1 0 
0.85 1 0 
0.9 1 0 
0.95 1 0 
1 1 0 
CELLS 400 2000
4 0 1 22 21 
4 1 2 23 22 
4 2 3 24 23 
4 3 4 25 24 
4 4 5 26 25 
4 5 6 27 26 
4 6 7 28 27 
4 7 8 29 28 
4 8 9 30 29 
4 9 10 31 30 
4 10 11 32 31 
4 11 12 33 32 
4 12 13 34 33 
4 13 14 35 34 
4 14 15 36 35 
4 15 16 37 36 
4 16 17 38 37 
4 17 18 39 38 
4 18 19 40 39 
4 19 20 41 40 
4 21 22 43 42 
4 22 23 44 43 
4 23 24 45 44 
4 24 25 46 45 
4 25 26 47 46 
4 26 27 48 47 
4 27 28 49 48 
4 28 29 50 49 
4 29 30 51 50 
4 30 31 52 51 
4 31 32 53 52 
4 32 33 54 53 
4 33 34 55 54 
4 34 35 56 55 
4 35 36 57 56 
4 36 37 58 57 
4 37 38 59 58 
4 38 39 60 59 
4 39 40 61 60 
4 40 41 62 61 
4 42 43 64 63 
4 43 44 65 64 
4 44 45 66 65 
4 45 46 67 66 
4 46 47 68 67 
4 47 48 69 68 
4 48 49 70 69 
4 49 50 71 70 
4 50 51 72 71 
4 51 52 73 72 
4 52 53 74 73 
4 53 54 75 74 
4 54 55 76 75 
4 55 56 77 76 
4 56 57 78 77 
4 57 58 79 78 
4 58 59 80 79 
4 59 60 81 80 
4 60 61 82 81 
4 61 62 83 82 
4 63 64 85 84 
4 64 65 86 85 
4 65 66 87 86 
4 66 67 88 87 
4 67 68 89 88 
4 68 69 90 89 
4 69 70 91 90 
4 70 71 92 91 
4 71 72 93 92 
4 72 73 94 93 
4 73 74 95 94 
4 74 75 96 95 
4 75 76 97 96 
4 76 77 98 97 
4 77 78 99 98 
4 78 79 100 99 
4 79 80 101 100 
4 80 81 102 101 
4 81 82 103 102 
4 82 83 104 103 
4 84 85 106 105 
4 85 86 107 106 
4 86 87 108 107 
4 87 88 109 108 
4 88 89 110 109 
4 89 90 111 110 
4 90 91 112 111 
4 91 92 113 112 
4 92 93 114 113 
4 93 94 115 114 
4 94 95 116 115 
4 95 96 117 116 
4 96 97 118 117 
4 97 98 119 118 
4 98 99 120 119 
4 99 100 121 120 
4 100 101 122 121 
4 101 102 123 122 
4 102 103 124 123 
4 103 104 125 124 
4 105 106 127 126 
4 106 107 128 127 
4 107 108 129 128 
4 108 109 130 129 
4 109 110 131 130 
4 110 111 132 131 
4 111 112 133 132 
4 112 113 134 133 
4 113 114 135 134 
4 114 115 136 135 
4 115 116 137 136 
4 116 117 138 137 
4 117 118 139 138 
4 118 119 140 139 
4 119 120 141 140 
4 120 121 142 141 
4 121 122 143 142 
4 122 123 144 143 
4 123 124 145 144 
4 124 125 146 145 
4 126 127 148 147 
4 127 128 149 148 
4 128 129 150 149 
4 129 130 151 150 
4 130 131 152 151 
4 131 132 153 152 
4 132 133 154 153 
4 133 134 155 154 
4 134 135 156 155 
4 135 136 157 156 
4 136 137 158 157 
4 137 138 159 158 
4 138 139 160 159 
4 139 140 161 160 
4 140 141 162 161 
4 141 142 163 162 
4 142 143 164 163 
4 143 144 165 164 
4 144 145 166 165 
4 145 146 167 166 
4 147 148 169 168 
4 148 149 170 169 
4 149 150 171 170 
4 150 151 172 171 
4 151 152 173 172 
4 152 153 174 173 
4 153 154 175 174 
4 154 155 176 175 
4 155 156 177 176 
4 156 157 178 177 
4 157 158 179 178 
4 158 159 180 179 
4 159 160 181 180 
4 160 161 182 181 
4 161 162 183 182 
4 162 163 184 183 
4 163 164 185 184 
4 164 165 186 185 
4 165 166 187 186 
4 166 167 188 187 
4 168 169 190 189 
4 169 170 191 190 
4 170 171 192 191 
4 171 172 193 192 
4 172 173 194 193 
4 173 174 195 194 
4 174 175 196 195 
4 175 176 197 196 
4 176 177 198 197 
4 177 178 199 198 
4 178 179 200 199 
4 179 180 201 200 
4 180 181 202 201 
4 181 182 203 202 
4 182 183 204 203 
4 183 184 205 204 
4 184 185 206 205 
4 185 186 207 206 
4 186 187 208 207 
4 187 188 209 208 
4 189 190 211 210 
4 190 191 212 211 
4 191 192 213 212 
4 192 193 214 213 
4 193 194 215 214 
4 194 195 216 215 
4 195 196 217 216 
4 196 197 218 217 
4 197 198 219 218 
4 198 199 220 219 
4 199 200 221 220 
4 200 201 222 221 
4 201 202 223 222 
4 202 203 224 223 
4 203 204 225 224 
4 204 205 226 225 
4 205 206 227 226 
4 206 207 228 227 
4 207 208 229 228 
4 208 209 230 229 
4 210 211 232 231 
4 211 212 233 232 
4 212 213 234 233 
4 213 214 235 234 
4 214 215 236 235 
4 215 216 237 236 
4 216 217 238 237 
4 217 218 239 238 
4 218 219 240 239 
4 219 220 241 240 
4 220 221 242 241 
4 221 222 243 242 
4 222 223 244 243 
4 223 224 245 244 
4 224 225 246 245 
4 225 226 247 246 
4 226 227 248 247 
4 227 228 249 248 
4 228 229 250 249 
4 229 230 251 250 
4 231 232 253 252 
4 232 233 254 253 
4 233 234 255 254 
4 234 235 256 255 
4 235 236 257 256 
4 236 237 258 257 
4 237 238 259 258 
4 238 239 260 259 
4 239 240 261 260 
4 240 241 262 261 
4 241 242 263 262 
4 242 243 264 263 
4 243 244 265 264 
4 244 245 266 265 
4 245 246 267 266 
4 246 247 268 267 
4 247 248 269 268 
4 248 249 270 269 
4 249 250 271 270 
4 250 251 272 271 
4 252 253 274 273 
4 253 254 275 274 
4 254 255 276 275 
4 255 256 277 276 
4 256 257 278 277 
4 257 258 279 278 
4 258 259 280 279 
4 259 260 281 280 
4 260 261 282 281 
4 261 262 283 282 
4 262 263 284 283 
4 263 264 285 284 
4 264 265 286 285 
4 265 266 287 286 
4 266 267 288 287 
4 267 268 289 288 
4 268 269 290 289 
4 269 270 291 290 
4 270 271 292 291 
4 271 272 293 292 
4 273 274 295 294 
4 274 275 296 295 
4 275 276 297 296 
4 276 277 298 297 
4 277 278 299 298 
4 278 279 300 299 
4 279 280 301 300 
4 280 281 302 301 
4 281 282 303 302 
4 282 283 304 303 
4 283 284 305 304 
4 284 285 306 305 
4 285 286 307 306 
4 286 287 308 307 
4 287 288 309 308 
4 288 289 310 309 
4 289 290 311 310 
4 290 291 312 311 
4 291 292 313 312 
4 292 293 314 313 
4 294 295 316 315 
4 295 296 317 316 
4 296 297 318 317 
4 297 298 319 318 
4 298 299 320 319 
4 299 300 321 320 
4 300 301 322 321 
4 301 302 323 322 
4 302 303 324 323 
4 303 304 325 324 
4 304 305 326 325 
4 305 306 327 326 
4 306 307 328 327 
4 307 308 329 328 
4 308 309 330 329 
4 309 310 331 330 
4 310 311 332 331 
4 311 312 333 332 
4 312 313 334 333 
4 313 314 335 334 
4 315 316 337 336 
4 316 317 338 337 
4 317 318 339 338 
4 318 319 340 339 
4 319 320 341 340 
4 320 321 342 341 
4 321 322 343 342 
4 322 323 344 343 
4 323 324 345 344 
4 324 325 346 345 
4 325 326 347 346 
4 326 327 348 347 
4 327 328 349 348 
4 328 329 350 349 
4 329 330 351 350 
4 330 331 352 351 
4 331 332 353 352 
4 332 333 354 353 
4 333 334 355 354 
4 334 335 356 355 
4 336 337 358 357 
4 337 338 359 358 
4 338 339 360 359 
4 339 340 361 360 
4 340 341 362 361 
4 341 342 363 362 
4 342 343 364 363 
4 343 344 365 364 
4 344 345 366 365 
4 345 346 367 366 
4 346 347 368 367 
4 347 348 369 368 
4 348 349 370 369 
4 349 350 371 370 
4 350 351 372 371 
4 351 352 373 372 
4 352 353 374 373 
4 353 354 375 374 
4 354 355 376 375 
4 355 356 377 376 
4 357 358 379 378 
4 358 359 380 379 
4 359 360 381 380 
4 360 361 382 381 
4 361 362 383 382 
4 362 363 384 383 
4 363 364 385 384 
4 364 365 386 385 
4 365 366 387 386 
4 366 367 388 387 
4 367 368 389 388 
4 368 369 390 389 
4 369 370 391 390 
4 370 371 392 391 
4 371 372 393 392 
4 372 373 394 393 
4 373 374 395 394 
4 374 375 396 395 
4 375 376 397 396 
4 376 377 398 397 
4 378 379 400 399 
4 379 380 401 400 
4 380 381 402 401 
4 381 382 403 402 
4 382 383 404 403 
4 383 384 405 404 
4 384 385 406 405 
4 385 386 407 406 
4 386 387 408 407 
4 387 388 409 408 
4 388 389 410 409 
4 389 390 411 410 
4 390 391 412 411 
4 391 392 413 412 
4 392 393 414 413 
4 393 394 415 414 
4 394 395 416 415 
4 395 396 417 416 
4 396 397 418 417 
4 397 398 419 418 
4 399 400 421 420 
4 400 401 422 421 
4 401 402 423 422 
4 402 403 424 423 
4 403 404 425 424 
4 404 405 426 425 
4 405 406 427 426 
4 406 407 428 427 
4 407 408 429 428 
4 408 409 430 429 
4 409 410 431 430 
4 410 411 432 431 
4 411 412 433 432 
4 412 413 434 433 
4 413 414 435 434 
4 414 415 436 435 
4 415 416 437 436 
4 416 417 438 437 
4 417 418 439 438 
4 418 419 440 439 
CELL_TYPES 400
9
9
9
9
9
9
9
9
9
9
9
9
9
9
9
9
9
9
9
9
9
9
9
9
9
9
9
9
9
9
9
9
9
9
9
9
9
9
9
9
9
9
9
9
9
9
9
9
9
9
9
9
9
9
9
9
9
9
9
9
9
9
9
9
9
9
9
9
9
9
9
9
9
9
9
9
9
9
9
9
9
9
9
9
9
9
9
9
9
9
9
9
9
9
9
9
9
9
9
9
9
9
9
9
9
9
9
9
9
9
9
9
9
9
9
9
9
9
9
9
9
9
9
9
9
9
9
9
9
9
9
9
9
9
9
9
9
9
9
9
9
9
9
9
9
9
9
9
9
9
9
9
9
9
9
9
9
9
9
9
9
9
9
9
9
9
9
9
9
9
9
9
9
9
9
9
9
9
9
9
9
9
9
9
9
9
9
9
9
9
9
9
9
9
9
9
9
9
9
9
9
9
9
9
9
9
9
9
9
9
9
9
9
9
9
9
9
9
9
9
9
9
9
9
9
9
9
9
9
9
9
9
9
9
9
9
9
9
9
9
9
9
9
9
9
9
9
9
9
9
9
9
9
9
9
9
9
9
9
9
9
9
9
9
9
9
9
9
9
9
9
9
9
9
9
9
9
9
9
9
9
9
9
9
9
9
9
9
9
9
9
9
9
9
9
9
9
9
9
9
9
9
9
9
9
9
9
9
9
9
9
9
9
9
9
9
9
9
9
9
9
9
9
9
9
9
9
9
9
9
9
9
9
9
9
9
9
9
9
9
9
9
9
9
9
9
9
9
9
9
9
9
9
9
9
9
9
9
9
9
9
9
9
9
9
9
9
9
9
9
9
9
9
9
9
9
9
9
9
9
9
9
9
9
9
9
9
9
9
9
9
9
9
9
9
9
9
9
9
9
POINT_DATA 441
VECTORS disp float 
0 0 0 
0.0249362 0.0246382 0 
0.0450271 0.0385027 0 
0.0640359 0.0480143 0 
0.0827645 0.0549402 0 
0.101498 0.0600932 0 
0.120359 0.0639559 0 
0.139402 0.0668534 0 
0.158644 0.0690203 0 
0.178084 0.0706321 0 
0.19771 0.0718222 0 
0.217504 0.0726934 0 
0.237445 0.073325 0 
0.257514 0.0737777 0 
0.277688 0.0740979 0 
0.29795 0.0743211 0 
0.318281 0.0744735 0 
0.338666 0.0745744 0 
0.35909 0.0746375 0 
0.379539 0.0746719 0 
0.4 0.0746829 0 
0 0 0 
0.0190259 0.0177774 0 
0.0395584 0.0312317 0 
0.0595891 0.0408714 0 
0.0792482 0.0478972 0 
0.0987467 0.0530865 0 
0.118221 0.0569415 0 
0.13775 0.0598062 0 
0.157375 0.061928 0 
0.177116 0.0634905 0 
0.196976 0.0646322 0 
0.216952 0.0654586 0 
0.237033 0.0660503 0 
0.257209 0.0664686 0 
0.277465 0.0667602 0 
0.29779 0.06696 0 
0.318169 0.0670939 0 
0.33859 0.067181 0 
0.359043 0.0672346 0 
0.379517 0.0672634 0 
0.4 0.0672724 0 
0 0 0 
0.0174132 0.0136012 0 
0.0366321 0.0253005 0 
0.0564647 0.0343429 0 
0.0763784 0.041139 0 
0.096267 0.0462116 0 
0.116144 0.0499848 0 
0.136043 0.0527798 0 
0.155992 0.054838 0 
0.176006 0.0563422 0 
0.196094 0.0574315 0 
0.216257 0.0582118 0 
0.236492 0.0587639 0 
0.256791 0.0591489 0 
0.277147 0.0594129 0 
0.297551 0.0595906 0 
0.317995 0.0597074 0 
0.338469 0.0597816 0 
0.358967 0.0598263 0 
0.37948 0.05985 0 
0.4 0.0598573 0 
0 0 0 
0.0167963 0.0107571 0 
0.0351509 0.0205092 0 
0.0544715 0.0285305 0 
0.0742506 0.0347967 0 
0.0942298 0.0395701 0 
0.114305 0.0431539 0 
0.134442 0.0458158 0 
0.15463 0.0477733 0 
0.17487 0.0491978 0 
0.195159 0.0502228 0 
0.215498 0.0509508 0 
0.235883 0.0514606 0 
0.256309 0.0518116 0 
0.276771 0.0520488 0 
0.297263 0.0522056 0 
0.317781 0.0523065 0 
0.338319 0.0523691 0 
0.358871 0.0524059 0 
0.379433 0.052425 0 
0.4 0.0524309 0 
0 0 0 
0.0165109 0.00858505 0 
0.0343544 0.0165577 0 
0.0532203 0.0233861 0 
0.0727415 0.0289095 0 
0.0926469 0.0332169 0 
0.112774 0.0364961 0 
0.133035 0.038949 0 
0.153383 0.0407568 0 
0.173792 0.0420708 0 
0.194247 0.0430127 0 
0.214739 0.0436778 0 
0.235261 0.0441397 0 
0.255807 0.0444544 0 
0.276373 0.0446642 0 
0.296955 0.0448007 0 
0.31755 0.0448867 0 
0.338155 0.044939 0 
0.358766 0.0449689 0 
0.379382 0.044984 0 
0.4 0.0449886 0 
0 0 0 
0.0163646 0.00679097 0 
0.0338988 0.0131765 0 
0.0524254 0.0187867 0 
0.0716902 0.023448 0 
0.0914587 0.0271625 0 
0.111556 0.0300333 0 
0.131863 0.0322005 0 
0.152304 0.0338053 0 
0.172831 0.0349733 0 
0.193414 0.0358092 0 
0.214031 0.0363972 0 
0.234671 0.0368031 0 
0.255324 0.0370774 0 
0.275986 0.0372584 0 
0.296652 0.0373744 0 
0.31732 0.0374463 0 
0.33799 0.037489 0 
0.35866 0.0375129 0 
0.37933 0.0375247 0 
0.4 0.0375282 0 
0 0 0 
0.0162853 0.00522845 0 
0.0336266 0.0101796 0 
0.0519134 0.0146006 0 
0.0709656 0.0183455 0 
0.090591 0.0213829 0 
0.110622 0.0237627 0 
0.130929 0.0255764 0 
0.151418 0.0269272 0 
0.172022 0.0279128 0 
0.192697 0.0286183 0 
0.213412 0.0291136 0 
0.234147 0.0294542 0 
0.254891 0.029683 0 
0.275635 0.0298327 0 
0.296375 0.0299277 0 
0.317109 0.0299857 0 
0.337838 0.0300195 0 
0.358562 0.030038 0 
0.379282 0.0300469 0 
0.4 0.0300495 0 
0 0 0 
0.0162411 0.00381441 0 
0.033461 0.00744196 0 
0.051584 0.0107146 0 
0.0704761 0.013524 0 
0.089979 0.0158329 0 
0.109939 0.0176622 0 
0.130225 0.0190681 0 
0.150733 0.0201209 0 
0.171384 0.0208915 0 
0.192122 0.0214436 0 
0.212908 0.0218309 0 
0.233717 0.0220966 0 
0.254531 0.0222744 0 
0.275341 0.0223901 0 
0.296141 0.0224628 0 
0.31693 0.0225068 0 
0.337709 0.022532 0 
0.358478 0.0225456 0 
0.379241 0.022552 0 
0.4 0.0225539 0 
0 0 0 
0.0162169 0.00249572 0 
0.0333623 0.00487525 0 
0.0513796 0.00703572 0 
0.070162 0.00890642 0 
0.089574 0.0104578 0 
0.109475 0.011697 0 
0.129736 0.0126553 0 
0.150247 0.0133762 0 
0.170925 0.0139053 0 
0.191703 0.0142849 0 
0.212538 0.0145512 0 
0.233398 0.0147336 0 
0.254262 0.0148553 0 
0.27512 0.0149342 0 
0.295965 0.0149836 0 
0.316795 0.0150132 0 
0.337611 0.01503 0 
0.358414 0.0150389 0 
0.379209 0.0150431 0 
0.4 0.0150443 0 
0 0 0 
0.0162047 0.00123435 0 
0.0333098 0.00241286 0 
0.0512679 0.0034866 0 
0.0699865 0.00442085 0 
0.0893434 0.00519973 0 
0.109206 0.00582483 0 
0.129448 0.00631019 0 
0.149959 0.00667636 0 
0.170648 0.00694562 0 
0.191449 0.00713896 0 
0.212312 0.00727459 0 
0.233202 0.00736746 0 
0.254097 0.00742936 0 
0.274983 0.00746939 0 
0.295856 0.00749434 0 
0.316711 0.00750924 0 
0.337549 0.00751765 0 
0.358374 0.00752208 0 
0.37919 0.00752414 0 
0.4 0.00752472 0 
0 0 0 
0.016201 7.28448e-19 0 
0.0332933 -4.64174e-19 0 
0.0512324 -3.82181e-18 0 
0.06993 -1.22921e-17 0 
0.0892685 -1.4447e-17 0 
0.109118 -3.17707e-17 0 
0.129353 -2.88093e-17 0 
0.149863 -2.70068e-17 0 
0.170556 -2.4564e-17 0 
0.191364 -1.77098e-17 0 
0.212236 -2.54245e-17 0 
0.233136 -1.41082e-17 0 
0.254041 -9.81881e-18 0 
0.274937 -2.71898e-17 0 
0.295819 -4.88907e-17 0 
0.316682 -4.84808e-17 0 
0.337529 -6.86588e-17 0 
0.358361 -3.34104e-17 0 
0.379183 -1.93801e-18 0 
0.4 -9.97466e-18 0 
0 0 0 
0.0162047 -0.00123435 0 
0.0333098 -0.00241286 0 
0.0512679 -0.0034866 0 
0.0699865 -0.00442085 0 
0.0893434 -0.00519973 0 
0.109206 -0.00582483 0 
0.129448 -0.00631019 0 
0.149959 -0.00667636 0 
0.170648 -0.00694562 0 
0.191449 -0.00713896 0 
0.212312 -0.00727459 0 
0.233202 -0.00736746 0 
0.254097 -0.00742936 0 
0.274983 -0.00746939 0 
0.295856 -0.00749434 0 
0.316711 -0.00750924 0 
0.337549 -0.00751765 0 
0.358374 -0.00752208 0 
0.37919 -0.00752414 0 
0.4 -0.00752472 0 
0 0 0 
0.0162169 -0.00249572 0 
0.0333623 -0.00487525 0 
0.0513796 -0.00703572 0 
0.070162 -0.00890642 0 
0.089574 -0.0104578 0 
0.109475 -0.011697 0 
0.129736 -0.0126553 0 
0.150247 -0.0133762 0 
0.170925 -0.0139053 0 
0.191703 -0.0142849 0 
0.212538 -0.0145512 0 
0.233398 -0.0147336 0 
0.254262 -0.0148553 0 
0.27512 -0.0149342 0 
0.295965 -0.0149836 0 
0.316795 -0.0150132 0 
0.337611 -0.01503 0 
0.358414 -0.0150389 0 
0.379209 -0.0150431 0 
0.4 -0.0150443 0 
0 0 0 
0.0162411 -0.00381441 0 
0.033461 -0.00744196 0 
0.051584 -0.0107146 0 
0.0704761 -0.013524 0 
0.089979 -0.0158329 0 
0.109939 -0.0176622 0 
0.130225 -0.0190681 0 
0.150733 -0.0201209 0 
0.171384 -0.0208915 0 
0.192122 -0.0214436 0 
0.212908 -0.0218309 0 
0.233717 -0.0220966 0 
0.254531 -0.0222744 0 
0.275341 -0.0223901 0 
0.296141 -0.0224628 0 
0.31693 -0.0225068 0 
0.337709 -0.022532 0 
0.358478 -0.0225456 0 
0.379241 -0.022552 0 
0.4 -0.0225539 0 
0 0 0 
0.0162853 -0.00522845 0 
0.0336266 -0.0101796 0 
0.0519134 -0.0146006 0 
0.0709656 -0.0183455 0 
0.090591 -0.0213829 0 
0.110622 -0.0237627 0 
0.130929 -0.0255764 0 
0.151418 -0.0269272 0 
0.172022 -0.0279128 0 
0.192697 -0.0286183 0 
0.213412 -0.0291136 0 
0.234147 -0.0294542 0 
0.254891 -0.029683 0 
0.275635 -0.0298327 0 
0.296375 -0.0299277 0 
0.317109 -0.0299857 0 
0.337838 -0.0300195 0 
0.358562 -0.030038 0 
0.379282 -0.0300469 0 
0.4 -0.0300495 0 
0 0 0 
0.0163646 -0.00679097 0 
0.0338988 -0.0131765 0 
0.0524254 -0.0187867 0 
0.0716902 -0.023448 0 
0.0914587 -0.0271625 0 
0.111556 -0.0300333 0 
0.131863 -0.0322005 0 
0.152304 -0.0338053 0 
0.172831 -0.0349733 0 
0.193414 -0.0358092 0 
0.214031 -0.0363972 0 
0.234671 -0.0368031 0 
0.255324 -0.0370774 0 
0.275986 -0.0372584 0 
0.296652 -0.0373744 0 
0.31732 -0.0374463 0 
0.33799 -0.037489 0 
0.35866 -0.0375129 0 
0.37933 -0.0375247 0 
0.4 -0.0375282 0 
0 0 0 
0.0165109 -0.00858505 0 
0.0343544 -0.0165577 0 
0.0532203 -0.0233861 0 
0.0727415 -0.0289095 0 
0.0926469 -0.0332169 0 
0.112774 -0.0364961 0 
0.133035 -0.038949 0 
0.153383 -0.0407568 0 
0.173792 -0.0420708 0 
0.194247 -0.0430127 0 
0.214739 -0.0436778 0 
0.235261 -0.0441397 0 
0.255807 -0.0444544 0 
0.276373 -0.0446642 0 
0.296955 -0.0448007 0 
0.31755 -0.0448867 0 
0.338155 -0.044939 0 
0.358766 -0.0449689 0 
0.379382 -0.044984 0 
0.4 -0.0449886 0 
0 0 0 
0.0167963 -0.0107571 0 
0.0351509 -0.0205092 0 
0.0544715 -0.0285305 0 
0.0742506 -0.0347967 0 
0.0942298 -0.0395701 0 
0.114305 -0.0431539 0 
0.134442 -0.0458158 0 
0.15463 -0.0477733 0 
0.17487 -0.0491978 0 
0.195159 -0.0502228 0 
0.215498 -0.0509508 0 
0.235883 -0.0514606 0 
0.256309 -0.0518116 0 
0.276771 -0.0520488 0 
0.297263 -0.0522056 0 
0.317781 -0.0523065 0 
0.338319 -0.0523691 0 
0.358871 -0.0524059 0 
0.379433 -0.052425 0 
0.4 -0.0524309 0 
0 0 0 
0.0174132 -0.0136012 0 
0.0366321 -0.0253005 0 
0.0564647 -0.0343429 0 
0.0763784 -0.041139 0 
0.096267 -0.0462116 0 
0.116144 -0.0499848 0 
0.136043 -0.0527798 0 
0.155992 -0.054838 0 
0.176006 -0.0563422 0 
0.196094 -0.0574315 0 
0.216257 -0.0582118 0 
0.236492 -0.0587639 0 
0.256791 -0.0591489 0 
0.277147 -0.0594129 0 
0.297551 -0.0595906 0 
0.317995 -0.0597074 0 
0.338469 -0.0597816 0 
0.358967 -0.0598263 0 
0.37948 -0.05985 0 
0.4 -0.0598573 0 
0 0 0 
0.0190259 -0.0177774 0 
0.0395584 -0.0312317 0 
0.0595891 -0.0408714 0 
0.0792482 -0.0478972 0 
0.0987467 -0.0530865 0 
0.118221 -0.0569415 0 
0.13775 -0.0598062 0 
0.157375 -0.061928 0 
0.177116 -0.0634905 0 
0.196976 -0.0646322 0 
0.216952 -0.0654586 0 
0.237033 -0.0660503 0 
0.257209 -0.0664686 0 
0.277465 -0.0667602 0 
0.29779 -0.06696 0 
0.318169 -0.0670939 0 
0.33859 -0.067181 0 
0.359043 -0.0672346 0 
0.379517 -0.0672634 0 
0.4 -0.0672724 0 
0 0 0 
0.0249362 -0.0246382 0 
0.0450271 -0.0385027 0 
0.0640359 -0.0480143 0 
0.0827645 -0.0549402 0 
0.101498 -0.0600932 0 
0.120359 -0.0639559 0 
0.139402 -0.0668534 0 
0.158644 -0.0690203 0 
0.178084 -0.0706321 0 
0.19771 -0.0718222 0 
0.217504 -0.0726934 0 
0.237445 -0.073325 0 
0.257514 -0.0737777 0 
0.277688 -0.0740979 0 
0.29795 -0.0743211 0 
0.318281 -0.0744735 0 
0.338666 -0.0745744 0 
0.35909 -0.0746375 0 
0.379539 -0.0746719 0 
0.4 -0.0746829 0 
CELL_DATA 400
TENSORS sigma float 
438.897 167.074 0 167.074 85.3214 0 0 0 109.27 
408.762 89.3673 0 89.3673 28.6175 0 0 0 94.9543 
390.763 57.1207 0 57.1207 13.6813 0 0 0 89.276 
382.737 39.4892 0 39.4892 7.64362 0 0 0 86.7314 
380.117 28.2737 0 28.2737 4.6274 0 0 0 85.6166 
380.373 20.5456 0 20.5456 2.93874 0 0 0 85.228 
382.134 14.9888 0 14.9888 1.92448 0 0 0 85.223 
384.62 10.9056 0 10.9056 1.28465 0 0 0 85.4174 
387.372 7.87719 0 7.87719 0.865704 0 0 0 85.7064 
390.115 5.62838 0 5.62838 0.583241 0 0 0 86.0291 
392.691 3.96554 0 3.96554 0.388374 0 0 0 86.35 
395.013 2.74629 0 2.74629 0.251607 0 0 0 86.6492 
397.043 1.86297 0 1.86297 0.154499 0 0 0 86.9164 
398.769 1.23294 0 1.23294 0.0851361 0 0 0 87.147 
400.199 0.792291 0 0.792291 0.035592 0 0 0 87.3401 
401.348 0.491408 0 0.491408 0.000461468 0 0 0 87.4966 
402.237 0.291649 0 0.291649 -0.023996 0 0 0 87.6184 
402.885 0.162656 0 0.162656 -0.0403673 0 0 0 87.7074 
403.306 0.0801248 0 0.0801248 -0.0503926 0 0 0 87.7656 
403.514 0.0238754 0 0.0238754 -0.0551478 0 0 0 87.7944 
376.122 122.217 0 122.217 116.203 0 0 0 117.279 
397.628 95.7491 0 95.7491 56.1215 0 0 0 102.993 
397.118 65.223 0 65.223 29.4045 0 0 0 95.7917 
393.472 44.4157 0 44.4157 17.1035 0 0 0 91.8637 
390.999 30.6035 0 30.6035 10.742 0 0 0 89.6326 
390.096 21.1986 0 21.1986 7.09762 0 0 0 88.3595 
390.386 14.6451 0 14.6451 4.84162 0 0 0 87.6555 
391.438 10.0164 0 10.0164 3.36274 0 0 0 87.2979 
392.911 6.7323 0 6.7323 2.35209 0 0 0 87.1515 
394.562 4.40897 0 4.40897 1.64102 0 0 0 87.1317 
396.228 2.78094 0 2.78094 1.13108 0 0 0 87.1844 
397.805 1.65868 0 1.65868 0.761352 0 0 0 87.2746 
399.232 0.904078 0 0.904078 0.49211 0 0 0 87.3802 
400.479 0.415382 0 0.415382 0.296258 0 0 0 87.4869 
401.532 0.117327 0 0.117327 0.154684 0 0 0 87.5861 
402.393 -0.045795 0 -0.045795 0.0536108 0 0 0 87.6726 
403.066 -0.115191 0 -0.115191 -0.0169658 0 0 0 87.7436 
403.56 -0.121443 0 -0.121443 -0.064231 0 0 0 87.7975 
403.884 -0.0875708 0 -0.0875708 -0.0931524 0 0 0 87.8336 
404.045 -0.0315469 0 -0.0315469 -0.106857 0 0 0 87.8517 
356.774 95.0014 0 95.0014 117.52 0 0 0 117.866 
380.229 83.7586 0 83.7586 74.2135 0 0 0 108.134 
391.567 63.8942 0 63.8942 44.9691 0 0 0 100.998 
395.08 45.7729 0 45.7729 27.9919 0 0 0 96.2917 
395.813 31.9324 0 31.9324 18.124 0 0 0 93.2308 
395.975 21.9003 0 21.9003 12.1304 0 0 0 91.2331 
396.285 14.7499 0 14.7499 8.30434 0 0 0 89.9272 
396.882 9.69584 0 9.69584 5.75427 0 0 0 89.079 
397.713 6.15524 0 6.15524 3.99752 0 0 0 88.5369 
398.681 3.70675 0 3.70675 2.75902 0 0 0 88.2006 
399.693 2.04551 0 2.04551 1.87328 0 0 0 88.0019 
400.68 0.949722 0 0.949722 1.23529 0 0 0 87.8942 
401.594 0.257397 0 0.257397 0.775146 0 0 0 87.8451 
402.407 -0.149777 0 -0.149777 0.444448 0 0 0 87.8323 
403.104 -0.357902 0 -0.357902 0.208694 0 0 0 87.8401 
403.679 -0.42925 0 -0.42925 0.0428858 0 0 0 87.8581 
404.133 -0.408545 0 -0.408545 -0.0711487 0 0 0 87.879 
404.469 -0.327766 0 -0.327766 -0.14644 0 0 0 87.8981 
404.69 -0.209918 0 -0.209918 -0.19197 0 0 0 87.9122 
404.799 -0.0720727 0 -0.0720727 -0.213375 0 0 0 87.9197 
348.667 75.4357 0 75.4357 115.831 0 0 0 117.905 
369.335 69.7318 0 69.7318 82.8917 0 0 0 110.751 
383.993 57.2292 0 57.2292 56.264 0 0 0 104.529 
392.285 43.3696 0 43.3696 37.7485 0 0 0 99.7539 
396.51 31.265 0 31.265 25.5286 0 0 0 96.2642 
398.677 21.7397 0 21.7397 17.4781 0 0 0 93.7611 
399.926 14.6225 0 14.6225 12.0788 0 0 0 91.979 
400.803 9.46763 0 9.46763 8.37684 0 0 0 90.7166 
401.535 5.82309 0 5.82309 5.78947 0 0 0 89.8276 
402.204 3.30765 0 3.30765 3.95599 0 0 0 89.207 
402.828 1.62062 0 1.62062 2.64638 0 0 0 88.779 
403.404 0.53228 0 0.53228 1.7085 0 0 0 88.4884 
403.922 -0.129636 0 -0.129636 1.03814 0 0 0 88.2952 
404.376 -0.492421 0 -0.492421 0.561836 0 0 0 88.1699 
404.761 -0.648885 0 -0.648885 0.226742 0 0 0 88.0914 
405.078 -0.665779 0 -0.665779 -0.00556754 0 0 0 88.0442 
405.326 -0.590467 0 -0.590467 -0.162996 0 0 0 88.0173 
405.51 -0.45619 0 -0.45619 -0.265487 0 0 0 88.003 
405.63 -0.286249 0 -0.286249 -0.326733 0 0 0 87.996 
405.69 -0.0973847 0 -0.0973847 -0.355298 0 0 0 87.9933 
344.746 59.9391 0 59.9391 114.274 0 0 0 117.995 
362.812 56.6376 0 56.6376 87.3794 0 0 0 112.26 
377.782 48.569 0 48.569 63.7945 0 0 0 106.872 
388.361 38.4817 0 38.4817 45.4394 0 0 0 102.314 
395.134 28.7131 0 28.7131 32.0525 0 0 0 98.6802 
399.278 20.4195 0 20.4195 22.5395 0 0 0 95.8766 
401.797 13.8933 0 13.8933 15.8129 0 0 0 93.7533 
403.358 9.00585 0 9.00585 11.0388 0 0 0 92.1645 
404.359 5.48073 0 5.48073 7.63149 0 0 0 90.987 
405.028 3.02339 0 3.02339 5.19025 0 0 0 90.1218 
405.492 1.37233 0 1.37233 3.43956 0 0 0 89.492 
405.824 0.313654 0 0.313654 2.18708 0 0 0 89.0381 
406.066 -0.319607 0 -0.319607 1.29602 0 0 0 88.7147 
406.245 -0.653753 0 -0.653753 0.667552 0 0 0 88.4873 
406.376 -0.782013 0 -0.782013 0.229524 0 0 0 88.3297 
406.473 -0.771752 0 -0.771752 -0.0708806 0 0 0 88.2226 
406.542 -0.670717 0 -0.670717 -0.272112 0 0 0 88.1515 
406.589 -0.512207 0 -0.512207 -0.401639 0 0 0 88.1062 
406.618 -0.319298 0 -0.319298 -0.478281 0 0 0 88.0797 
406.632 -0.108304 0 -0.108304 -0.513782 0 0 0 88.0675 
342.692 46.8297 0 46.8297 113.121 0 0 0 118.127 
358.821 44.7592 0 44.7592 89.9334 0 0 0 113.227 
373.26 39.4225 0 39.4225 68.7815 0 0 0 108.453 
384.734 32.2464 0 32.2464 51.1561 0 0 0 104.165 
393.067 24.7703 0 24.7703 37.3531 0 0 0 100.531 
398.759 18.022 0 18.022 26.9286 0 0 0 97.5701 
402.49 12.4578 0 12.4578 19.2033 0 0 0 95.2197 
404.858 8.14837 0 8.14837 13.5327 0 0 0 93.3891 
406.312 4.96765 0 4.96765 9.3933 0 0 0 91.9839 
407.167 2.71712 0 2.71712 6.38602 0 0 0 90.9182 
407.634 1.19214 0 1.19214 4.21337 0 0 0 90.1186 
407.856 0.211437 0 0.211437 2.65495 0 0 0 89.525 
407.927 -0.373346 0 -0.373346 1.54727 0 0 0 89.089 
407.91 -0.67771 0 -0.67771 0.768815 0 0 0 88.7723 
407.848 -0.788404 0 -0.788404 0.229286 0 0 0 88.5452 
407.768 -0.768735 0 -0.768735 -0.13811 0 0 0 88.3851 
407.689 -0.663779 0 -0.663779 -0.382246 0 0 0 88.2749 
407.621 -0.504995 0 -0.504995 -0.538103 0 0 0 88.2022 
407.572 -0.314123 0 -0.314123 -0.629652 0 0 0 88.1582 
407.547 -0.106443 0 -0.106443 -0.67184 0 0 0 88.1375 
341.567 35.2164 0 35.2164 112.31 0 0 0 118.262 
356.331 33.877 0 33.877 91.4839 0 0 0 113.88 
370.116 30.3374 0 30.3374 72.0938 0 0 0 109.53 
381.841 25.3644 0 25.3644 55.2517 0 0 0 105.479 
391.045 19.9209 0 19.9209 41.4078 0 0 0 101.9 
397.812 14.7775 0 14.7775 30.467 0 0 0 98.8666 
402.522 10.3735 0 10.3735 22.0483 0 0 0 96.3733 
405.636 6.86144 0 6.86144 15.6886 0 0 0 94.3725 
407.58 4.21272 0 4.21272 10.9496 0 0 0 92.797 
408.7 2.30958 0 2.30958 7.4589 0 0 0 91.5753 
409.263 1.00637 0 1.00637 4.91563 0 0 0 90.6404 
409.465 0.162661 0 0.162661 3.08339 0 0 0 89.9334 
409.445 -0.342144 0 -0.342144 1.77941 0 0 0 89.4048 
409.301 -0.604752 0 -0.604752 0.863957 0 0 0 89.0141 
409.101 -0.69915 0 -0.69915 0.231272 0 0 0 88.7291 
408.888 -0.679961 0 -0.679961 -0.197763 0 0 0 88.5247 
408.693 -0.586348 0 -0.586348 -0.481411 0 0 0 88.3816 
408.534 -0.445749 0 -0.445749 -0.661512 0 0 0 88.2857 