# vtk DataFile Version 2.0
Generated by inSilico's base::io::vtk::LegacyWriter
ASCII
DATASET UNSTRUCTURED_GRID
POINTS 441 float
0 0 0 
0.05 0 0 
0.1 0 0 
0.15 0 0 
0.2 0 0 
0.25 0 0 
0.3 0 0 
0.35 0 0 
0.4 0 0 
0.45 0 0 
0.5 0 0 
0.55 0 0 
0.6 0 0 
0.65 0 0 
0.7 0 0 
0.75 0 0 
0.8 0 0 
0.85 0 0 
0.9 0 0 
0.95 0 0 
1 0 0 
0 0.05 0 
0.05 0.05 0 
0.1 0.05 0 
0.15 0.05 0 
0.2 0.05 0 
0.25 0.05 0 
0.3 0.05 0 
0.35 0.05 0 
0.4 0.05 0 
0.45 0.05 0 
0.5 0.05 0 
0.55 0.05 0 
0.6 0.05 0 
0.65 0.05 0 
0.7 0.05 0 
0.75 0.05 0 
0.8 0.05 0 
0.85 0.05 0 
0.9 0.05 0 
0.95 0.05 0 
1 0.05 0 
0 0.1 0 
0.05 0.1 0 
0.1 0.1 0 
0.15 0.1 0 
0.2 0.1 0 
0.25 0.1 0 
0.3 0.1 0 
0.35 0.1 0 
0.4 0.1 0 
0.45 0.1 0 
0.5 0.1 0 
0.55 0.1 0 
0.6 0.1 0 
0.65 0.1 0 
0.7 0.1 0 
0.75 0.1 0 
0.8 0.1 0 
0.85 0.1 0 
0.9 0.1 0 
0.95 0.1 0 
1 0.1 0 
0 0.15 0 
0.05 0.15 0 
0.1 0.15 0 
0.15 0.15 0 
0.2 0.15 0 
0.25 0.15 0 
0.3 0.15 0 
0.35 0.15 0 
0.4 0.15 0 
0.45 0.15 0 
0.5 0.15 0 
0.55 0.15 0 
0.6 0.15 0 
0.65 0.15 0 
0.7 0.15 0 
0.75 0.15 0 
0.8 0.15 0 
0.85 0.15 0 
0.9 0.15 0 
0.95 0.15 0 
1 0.15 0 
0 0.2 0 
0.05 0.2 0 
0.1 0.2 0 
0.15 0.2 0 
0.2 0.2 0 
0.25 0.2 0 
0.3 0.2 0 
0.35 0.2 0 
0.4 0.2 0 
0.45 0.2 0 
0.5 0.2 0 
0.55 0.2 0 
0.6 0.2 0 
0.65 0.2 0 
0.7 0.2 0 
0.75 0.2 0 
0.8 0.2 0 
0.85 0.2 0 
0.9 0.2 0 
0.95 0.2 0 
1 0.2 0 
0 0.25 0 
0.05 0.25 0 
0.1 0.25 0 
0.15 0.25 0 
0.2 0.25 0 
0.25 0.25 0 
0.3 0.25 0 
0.35 0.25 0 
0.4 0.25 0 
0.45 0.25 0 
0.5 0.25 0 
0.55 0.25 0 
0.6 0.25 0 
0.65 0.25 0 
0.7 0.25 0 
0.75 0.25 0 
0.8 0.25 0 
0.85 0.25 0 
0.9 0.25 0 
0.95 0.25 0 
1 0.25 0 
0 0.3 0 
0.05 0.3 0 
0.1 0.3 0 
0.15 0.3 0 
0.2 0.3 0 
0.25 0.3 0 
0.3 0.3 0 
0.35 0.3 0 
0.4 0.3 0 
0.45 0.3 0 
0.5 0.3 0 
0.55 0.3 0 
0.6 0.3 0 
0.65 0.3 0 
0.7 0.3 0 
0.75 0.3 0 
0.8 0.3 0 
0.85 0.3 0 
0.9 0.3 0 
0.95 0.3 0 
1 0.3 0 
0 0.35 0 
0.05 0.35 0 
0.1 0.35 0 
0.15 0.35 0 
0.2 0.35 0 
0.25 0.35 0 
0.3 0.35 0 
0.35 0.35 0 
0.4 0.35 0 
0.45 0.35 0 
0.5 0.35 0 
0.55 0.35 0 
0.6 0.35 0 
0.65 0.35 0 
0.7 0.35 0 
0.75 0.35 0 
0.8 0.35 0 
0.85 0.35 0 
0.9 0.35 0 
0.95 0.35 0 
1 0.35 0 
0 0.4 0 
0.05 0.4 0 
0.1 0.4 0 
0.15 0.4 0 
0.2 0.4 0 
0.25 0.4 0 
0.3 0.4 0 
0.35 0.4 0 
0.4 0.4 0 
0.45 0.4 0 
0.5 0.4 0 
0.55 0.4 0 
0.6 0.4 0 
0.65 0.4 0 
0.7 0.4 0 
0.75 0.4 0 
0.8 0.4 0 
0.85 0.4 0 
0.9 0.4 0 
0.95 0.4 0 
1 0.4 0 
0 0.45 0 
0.05 0.45 0 
0.1 0.45 0 
0.15 0.45 0 
0.2 0.45 0 
0.25 0.45 0 
0.3 0.45 0 
0.35 0.45 0 
0.4 0.45 0 
0.45 0.45 0 
0.5 0.45 0 
0.55 0.45 0 
0.6 0.45 0 
0.65 0.45 0 
0.7 0.45 0 
0.75 0.45 0 
0.8 0.45 0 
0.85 0.45 0 
0.9 0.45 0 
0.95 0.45 0 
1 0.45 0 
0 0.5 0 
0.05 0.5 0 
0.1 0.5 0 
0.15 0.5 0 
0.2 0.5 0 
0.25 0.5 0 
0.3 0.5 0 
0.35 0.5 0 
0.4 0.5 0 
0.45 0.5 0 
0.5 0.5 0 
0.55 0.5 0 
0.6 0.5 0 
0.65 0.5 0 
0.7 0.5 0 
0.75 0.5 0 
0.8 0.5 0 
0.85 0.5 0 
0.9 0.5 0 
0.95 0.5 0 
1 0.5 0 
0 0.55 0 
0.05 0.55 0 
0.1 0.55 0 
0.15 0.55 0 
0.2 0.55 0 
0.25 0.55 0 
0.3 0.55 0 
0.35 0.55 0 
0.4 0.55 0 
0.45 0.55 0 
0.5 0.55 0 
0.55 0.55 0 
0.6 0.55 0 
0.65 0.55 0 
0.7 0.55 0 
0.75 0.55 0 
0.8 0.55 0 
0.85 0.55 0 
0.9 0.55 0 
0.95 0.55 0 
1 0.55 0 
0 0.6 0 
0.05 0.6 0 
0.1 0.6 0 
0.15 0.6 0 
0.2 0.6 0 
0.25 0.6 0 
0.3 0.6 0 
0.35 0.6 0 
0.4 0.6 0 
0.45 0.6 0 
0.5 0.6 0 
0.55 0.6 0 
0.6 0.6 0 
0.65 0.6 0 
0.7 0.6 0 
0.75 0.6 0 
0.8 0.6 0 
0.85 0.6 0 
0.9 0.6 0 
0.95 0.6 0 
1 0.6 0 
0 0.65 0 
0.05 0.65 0 
0.1 0.65 0 
0.15 0.65 0 
0.2 0.65 0 
0.25 0.65 0 
0.3 0.65 0 
0.35 0.65 0 
0.4 0.65 0 
0.45 0.65 0 
0.5 0.65 0 
0.55 0.65 0 
0.6 0.65 0 
0.65 0.65 0 
0.7 0.65 0 
0.75 0.65 0 
0.8 0.65 0 
0.85 0.65 0 
0.9 0.65 0 
0.95 0.65 0 
1 0.65 0 
0 0.7 0 
0.05 0.7 0 
0.1 0.7 0 
0.15 0.7 0 
0.2 0.7 0 
0.25 0.7 0 
0.3 0.7 0 
0.35 0.7 0 
0.4 0.7 0 
0.45 0.7 0 
0.5 0.7 0 
0.55 0.7 0 
0.6 0.7 0 
0.65 0.7 0 
0.7 0.7 0 
0.75 0.7 0 
0.8 0.7 0 
0.85 0.7 0 
0.9 0.7 0 
0.95 0.7 0 
1 0.7 0 
0 0.75 0 
0.05 0.75 0 
0.1 0.75 0 
0.15 0.75 0 
0.2 0.75 0 
0.25 0.75 0 
0.3 0.75 0 
0.35 0.75 0 
0.4 0.75 0 
0.45 0.75 0 
0.5 0.75 0 
0.55 0.75 0 
0.6 0.75 0 
0.65 0.75 0 
0.7 0.75 0 
0.75 0.75 0 
0.8 0.75 0 
0.85 0.75 0 
0.9 0.75 0 
0.95 0.75 0 
1 0.75 0 
0 0.8 0 
0.05 0.8 0 
0.1 0.8 0 
0.15 0.8 0 
0.2 0.8 0 
0.25 0.8 0 
0.3 0.8 0 
0.35 0.8 0 
0.4 0.8 0 
0.45 0.8 0 
0.5 0.8 0 
0.55 0.8 0 
0.6 0.8 0 
0.65 0.8 0 
0.7 0.8 0 
0.75 0.8 0 
0.8 0.8 0 
0.85 0.8 0 
0.9 0.8 0 
0.95 0.8 0 
1 0.8 0 
0 0.85 0 
0.05 0.85 0 
0.1 0.85 0 
0.15 0.85 0 
0.2 0.85 0 
0.25 0.85 0 
0.3 0.85 0 
0.35 0.85 0 
0.4 0.85 0 
0.45 0.85 0 
0.5 0.85 0 
0.55 0.85 0 
0.6 0.85 0 
0.65 0.85 0 
0.7 0.85 0 
0.75 0.85 0 
0.8 0.85 0 
0.85 0.85 0 
0.9 0.85 0 
0.95 0.85 0 
1 0.85 0 
0 0.9 0 
0.05 0.9 0 
0.1 0.9 0 
0.15 0.9 0 
0.2 0.9 0 
0.25 0.9 0 
0.3 0.9 0 
0.35 0.9 0 
0.4 0.9 0 
0.45 0.9 0 
0.5 0.9 0 
0.55 0.9 0 
0.6 0.9 0 
0.65 0.9 0 
0.7 0.9 0 
0.75 0.9 0 
0.8 0.9 0 
0.85 0.9 0 
0.9 0.9 0 
0.95 0.9 0 
1 0.9 0 
0 0.95 0 
0.05 0.95 0 
0.1 0.95 0 
0.15 0.95 0 
0.2 0.95 0 
0.25 0.95 0 
0.3 0.95 0 
0.35 0.95 0 
0.4 0.95 0 
0.45 0.95 0 
0.5 0.95 0 
0.55 0.95 0 
0.6 0.95 0 
0.65 0.95 0 
0.7 0.95 0 
0.75 0.95 0 
0.8 0.95 0 
0.85 0.95 0 
0.9 0.95 0 
0.95 0.95 0 
1 0.95 0 
0 1 0 
0.05 1 0 
0.1 1 0 
0.15 1 0 
0.2 1 0 
0.25 1 0 
0.3 1 0 
0.35 1 0 
0.4 1 0 
0.45 1 0 
0.5 1 0 
0.55 1 0 
0.6 1 0 
0.65 1 0 
0.7 1 0 
0.75 1 0 
0.8 1 0 
0.85 1 0 
0.9 1 0 
0.95 1 0 
1 1 0 
CELLS 400 2000
4 0 1 22 21 
4 1 2 23 22 
4 2 3 24 23 
4 3 4 25 24 
4 4 5 26 25 
4 5 6 27 26 
4 6 7 28 27 
4 7 8 29 28 
4 8 9 30 29 
4 9 10 31 30 
4 10 11 32 31 
4 11 12 33 32 
4 12 13 34 33 
4 13 14 35 34 
4 14 15 36 35 
4 15 16 37 36 
4 16 17 38 37 
4 17 18 39 38 
4 18 19 40 39 
4 19 20 41 40 
4 21 22 43 42 
4 22 23 44 43 
4 23 24 45 44 
4 24 25 46 45 
4 25 26 47 46 
4 26 27 48 47 
4 27 28 49 48 
4 28 29 50 49 
4 29 30 51 50 
4 30 31 52 51 
4 31 32 53 52 
4 32 33 54 53 
4 33 34 55 54 
4 34 35 56 55 
4 35 36 57 56 
4 36 37 58 57 
4 37 38 59 58 
4 38 39 60 59 
4 39 40 61 60 
4 40 41 62 61 
4 42 43 64 63 
4 43 44 65 64 
4 44 45 66 65 
4 45 46 67 66 
4 46 47 68 67 
4 47 48 69 68 
4 48 49 70 69 
4 49 50 71 70 
4 50 51 72 71 
4 51 52 73 72 
4 52 53 74 73 
4 53 54 75 74 
4 54 55 76 75 
4 55 56 77 76 
4 56 57 78 77 
4 57 58 79 78 
4 58 59 80 79 
4 59 60 81 80 
4 60 61 82 81 
4 61 62 83 82 
4 63 64 85 84 
4 64 65 86 85 
4 65 66 87 86 
4 66 67 88 87 
4 67 68 89 88 
4 68 69 90 89 
4 69 70 91 90 
4 70 71 92 91 
4 71 72 93 92 
4 72 73 94 93 
4 73 74 95 94 
4 74 75 96 95 
4 75 76 97 96 
4 76 77 98 97 
4 77 78 99 98 
4 78 79 100 99 
4 79 80 101 100 
4 80 81 102 101 
4 81 82 103 102 
4 82 83 104 103 
4 84 85 106 105 
4 85 86 107 106 
4 86 87 108 107 
4 87 88 109 108 
4 88 89 110 109 
4 89 90 111 110 
4 90 91 112 111 
4 91 92 113 112 
4 92 93 114 113 
4 93 94 115 114 
4 94 95 116 115 
4 95 96 117 116 
4 96 97 118 117 
4 97 98 119 118 
4 98 99 120 119 
4 99 100 121 120 
4 100 101 122 121 
4 101 102 123 122 
4 102 103 124 123 
4 103 104 125 124 
4 105 106 127 126 
4 106 107 128 127 
4 107 108 129 128 
4 108 109 130 129 
4 109 110 131 130 
4 110 111 132 131 
4 111 112 133 132 
4 112 113 134 133 
4 113 114 135 134 
4 114 115 136 135 
4 115 116 137 136 
4 116 117 138 137 
4 117 118 139 138 
4 118 119 140 139 
4 119 120 141 140 
4 120 121 142 141 
4 121 122 143 142 
4 122 123 144 143 
4 123 124 145 144 
4 124 125 146 145 
4 126 127 148 147 
4 127 128 149 148 
4 128 129 150 149 
4 129 130 151 150 
4 130 131 152 151 
4 131 132 153 152 
4 132 133 154 153 
4 133 134 155 154 
4 134 135 156 155 
4 135 136 157 156 
4 136 137 158 157 
4 137 138 159 158 
4 138 139 160 159 
4 139 140 161 160 
4 140 141 162 161 
4 141 142 163 162 
4 142 143 164 163 
4 143 144 165 164 
4 144 145 166 165 
4 145 146 167 166 
4 147 148 169 168 
4 148 149 170 169 
4 149 150 171 170 
4 150 151 172 171 
4 151 152 173 172 
4 152 153 174 173 
4 153 154 175 174 
4 154 155 176 175 
4 155 156 177 176 
4 156 157 178 177 
4 157 158 179 178 
4 158 159 180 179 
4 159 160 181 180 
4 160 161 182 181 
4 161 162 183 182 
4 162 163 184 183 
4 163 164 185 184 
4 164 165 186 185 
4 165 166 187 186 
4 166 167 188 187 
4 168 169 190 189 
4 169 170 191 190 
4 170 171 192 191 
4 171 172 193 192 
4 172 173 194 193 
4 173 174 195 194 
4 174 175 196 195 
4 175 176 197 196 
4 176 177 198 197 
4 177 178 199 198 
4 178 179 200 199 
4 179 180 201 200 
4 180 181 202 201 
4 181 182 203 202 
4 182 183 204 203 
4 183 184 205 204 
4 184 185 206 205 
4 185 186 207 206 
4 186 187 208 207 
4 187 188 209 208 
4 189 190 211 210 
4 190 191 212 211 
4 191 192 213 212 
4 192 193 214 213 
4 193 194 215 214 
4 194 195 216 215 
4 195 196 217 216 
4 196 197 218 217 
4 197 198 219 218 
4 198 199 220 219 
4 199 200 221 220 
4 200 201 222 221 
4 201 202 223 222 
4 202 203 224 223 
4 203 204 225 224 
4 204 205 226 225 
4 205 206 227 226 
4 206 207 228 227 
4 207 208 229 228 
4 208 209 230 229 
4 210 211 232 231 
4 211 212 233 232 
4 212 213 234 233 
4 213 214 235 234 
4 214 215 236 235 
4 215 216 237 236 
4 216 217 238 237 
4 217 218 239 238 
4 218 219 240 239 
4 219 220 241 240 
4 220 221 242 241 
4 221 222 243 242 
4 222 223 244 243 
4 223 224 245 244 
4 224 225 246 245 
4 225 226 247 246 
4 226 227 248 247 
4 227 228 249 248 
4 228 229 250 249 
4 229 230 251 250 
4 231 232 253 252 
4 232 233 254 253 
4 233 234 255 254 
4 234 235 256 255 
4 235 236 257 256 
4 236 237 258 257 
4 237 238 259 258 
4 238 239 260 259 
4 239 240 261 260 
4 240 241 262 261 
4 241 242 263 262 
4 242 243 264 263 
4 243 244 265 264 
4 244 245 266 265 
4 245 246 267 266 
4 246 247 268 267 
4 247 248 269 268 
4 248 249 270 269 
4 249 250 271 270 
4 250 251 272 271 
4 252 253 274 273 
4 253 254 275 274 
4 254 255 276 275 
4 255 256 277 276 
4 256 257 278 277 
4 257 258 279 278 
4 258 259 280 279 
4 259 260 281 280 
4 260 261 282 281 
4 261 262 283 282 
4 262 263 284 283 
4 263 264 285 284 
4 264 265 286 285 
4 265 266 287 286 
4 266 267 288 287 
4 267 268 289 288 
4 268 269 290 289 
4 269 270 291 290 
4 270 271 292 291 
4 271 272 293 292 
4 273 274 295 294 
4 274 275 296 295 
4 275 276 297 296 
4 276 277 298 297 
4 277 278 299 298 
4 278 279 300 299 
4 279 280 301 300 
4 280 281 302 301 
4 281 282 303 302 
4 282 283 304 303 
4 283 284 305 304 
4 284 285 306 305 
4 285 286 307 306 
4 286 287 308 307 
4 287 288 309 308 
4 288 289 310 309 
4 289 290 311 310 
4 290 291 312 311 
4 291 292 313 312 
4 292 293 314 313 
4 294 295 316 315 
4 295 296 317 316 
4 296 297 318 317 
4 297 298 319 318 
4 298 299 320 319 
4 299 300 321 320 
4 300 301 322 321 
4 301 302 323 322 
4 302 303 324 323 
4 303 304 325 324 
4 304 305 326 325 
4 305 306 327 326 
4 306 307 328 327 
4 307 308 329 328 
4 308 309 330 329 
4 309 310 331 330 
4 310 311 332 331 
4 311 312 333 332 
4 312 313 334 333 
4 313 314 335 334 
4 315 316 337 336 
4 316 317 338 337 
4 317 318 339 338 
4 318 319 340 339 
4 319 320 341 340 
4 320 321 342 341 
4 321 322 343 342 
4 322 323 344 343 
4 323 324 345 344 
4 324 325 346 345 
4 325 326 347 346 
4 326 327 348 347 
4 327 328 349 348 
4 328 329 350 349 
4 329 330 351 350 
4 330 331 352 351 
4 331 332 353 352 
4 332 333 354 353 
4 333 334 355 354 
4 334 335 356 355 
4 336 337 358 357 
4 337 338 359 358 
4 338 339 360 359 
4 339 340 361 360 
4 340 341 362 361 
4 341 342 363 362 
4 342 343 364 363 
4 343 344 365 364 
4 344 345 366 365 
4 345 346 367 366 
4 346 347 368 367 
4 347 348 369 368 
4 348 349 370 369 
4 349 350 371 370 
4 350 351 372 371 
4 351 352 373 372 
4 352 353 374 373 
4 353 354 375 374 
4 354 355 376 375 
4 355 356 377 376 
4 357 358 379 378 
4 358 359 380 379 
4 359 360 381 380 
4 360 361 382 381 
4 361 362 383 382 
4 362 363 384 383 
4 363 364 385 384 
4 364 365 386 385 
4 365 366 387 386 
4 366 367 388 387 
4 367 368 389 388 
4 368 369 390 389 
4 369 370 391 390 
4 370 371 392 391 
4 371 372 393 392 
4 372 373 394 393 
4 373 374 395 394 
4 374 375 396 395 
4 375 376 397 396 
4 376 377 398 397 
4 378 379 400 399 
4 379 380 401 400 
4 380 381 402 401 
4 381 382 403 402 
4 382 383 404 403 
4 383 384 405 404 
4 384 385 406 405 
4 385 386 407 406 
4 386 387 408 407 
4 387 388 409 408 
4 388 389 410 409 
4 389 390 411 410 
4 390 391 412 411 
4 391 392 413 412 
4 392 393 414 413 
4 393 394 415 414 
4 394 395 416 415 
4 395 396 417 416 
4 396 397 418 417 
4 397 398 419 418 
4 399 400 421 420 
4 400 401 422 421 
4 401 402 423 422 
4 402 403 424 423 
4 403 404 425 424 
4 404 405 426 425 
4 405 406 427 426 
4 406 407 428 427 
4 407 408 429 428 
4 408 409 430 429 
4 409 410 431 430 
4 410 411 432 431 
4 411 412 433 432 
4 412 413 434 433 
4 413 414 435 434 
4 414 415 436 435 
4 415 416 437 436 
4 416 417 438 437 
4 417 418 439 438 
4 418 419 440 439 
CELL_TYPES 400
9
9
9
9
9
9
9
9
9
9
9
9
9
9
9
9
9
9
9
9
9
9
9
9
9
9
9
9
9
9
9
9
9
9
9
9
9
9
9
9
9
9
9
9
9
9
9
9
9
9
9
9
9
9
9
9
9
9
9
9
9
9
9
9
9
9
9
9
9
9
9
9
9
9
9
9
9
9
9
9
9
9
9
9
9
9
9
9
9
9
9
9
9
9
9
9
9
9
9
9
9
9
9
9
9
9
9
9
9
9
9
9
9
9
9
9
9
9
9
9
9
9
9
9
9
9
9
9
9
9
9
9
9
9
9
9
9
9
9
9
9
9
9
9
9
9
9
9
9
9
9
9
9
9
9
9
9
9
9
9
9
9
9
9
9
9
9
9
9
9
9
9
9
9
9
9
9
9
9
9
9
9
9
9
9
9
9
9
9
9
9
9
9
9
9
9
9
9
9
9
9
9
9
9
9
9
9
9
9
9
9
9
9
9
9
9
9
9
9
9
9
9
9
9
9
9
9
9
9
9
9
9
9
9
9
9
9
9
9
9
9
9
9
9
9
9
9
9
9
9
9
9
9
9
9
9
9
9
9
9
9
9
9
9
9
9
9
9
9
9
9
9
9
9
9
9
9
9
9
9
9
9
9
9
9
9
9
9
9
9
9
9
9
9
9
9
9
9
9
9
9
9
9
9
9
9
9
9
9
9
9
9
9
9
9
9
9
9
9
9
9
9
9
9
9
9
9
9
9
9
9
9
9
9
9
9
9
9
9
9
9
9
9
9
9
9
9
9
9
9
9
9
9
9
9
9
9
9
9
9
9
9
9
9
9
9
9
9
9
9
9
9
9
9
9
9
9
9
9
9
9
9
9
9
9
9
9
9
9
9
9
9
9
9
9
9
9
9
9
9
POINT_DATA 441
VECTORS disp float 
0 0 0 
0.0166873 0.0161098 0 
0.0295384 0.0252853 0 
0.0414716 0.0316255 0 
0.0531259 0.0362707 0 
0.0647327 0.0397461 0 
0.0763954 0.0423642 0 
0.0881626 0.0443366 0 
0.100055 0.0458168 0 
0.112077 0.0469203 0 
0.124224 0.0477358 0 
0.136487 0.0483323 0 
0.148855 0.0487631 0 
0.161313 0.0490701 0 
0.173848 0.0492853 0 
0.186447 0.0494333 0 
0.199099 0.0495328 0 
0.21179 0.0495975 0 
0.224511 0.0496373 0 
0.237251 0.0496586 0 
0.25 0.0496653 0 
0 0 0 
0.0120901 0.0114719 0 
0.0252741 0.0204234 0 
0.0379902 0.0268862 0 
0.0503596 0.0316198 0 
0.0625571 0.0351318 0 
0.0746961 0.0377514 0 
0.0868438 0.0397046 0 
0.099038 0.0411548 0 
0.111298 0.0422238 0 
0.123633 0.0430041 0 
0.136042 0.0435671 0 
0.148523 0.0439677 0 
0.161068 0.044248 0 
0.17367 0.0444405 0 
0.18632 0.0445698 0 
0.19901 0.0446544 0 
0.211731 0.0447077 0 
0.224474 0.0447396 0 
0.237233 0.0447562 0 
0.25 0.0447614 0 
0 0 0 
0.0108991 0.00874703 0 
0.0230379 0.0164668 0 
0.0355803 0.0225232 0 
0.0481323 0.0271145 0 
0.0606219 0.0305618 0 
0.0730667 0.0331379 0 
0.0854979 0.0350527 0 
0.0979415 0.0364658 0 
0.110415 0.037499 0 
0.122928 0.0382458 0 
0.135486 0.0387781 0 
0.148087 0.0391515 0 
0.160731 0.0394083 0 
0.173413 0.039581 0 
0.186127 0.0396941 0 
0.198869 0.0397658 0 
0.211633 0.0398095 0 
0.224413 0.0398346 0 
0.237204 0.0398472 0 
0.25 0.0398511 0 
0 0 0 
0.0104495 0.0069157 0 
0.0219356 0.0133118 0 
0.0340734 0.0186596 0 
0.0465078 0.0228872 0 
0.0590548 0.0261357 0 
0.0716425 0.0285908 0 
0.0842496 0.030423 0 
0.096874 0.0317744 0 
0.109519 0.0327587 0 
0.122187 0.0334656 0 
0.13488 0.033965 0 
0.147599 0.0343112 0 
0.160343 0.0345459 0 
0.173108 0.0347007 0 
0.185894 0.0347996 0 
0.198695 0.0348605 0 
0.21151 0.0348961 0 
0.224335 0.0349156 0 
0.237166 0.0349251 0 
0.25 0.0349279 0 
0 0 0 
0.0102389 0.00552252 0 
0.0213509 0.0107322 0 
0.0331447 0.015264 0 
0.0453752 0.018979 0 
0.0578553 0.0219078 0 
0.0704726 0.0241572 0 
0.0831664 0.0258509 0 
0.095906 0.0271049 0 
0.108676 0.0280184 0 
0.121468 0.0286724 0 
0.134278 0.0291319 0 
0.147103 0.0294478 0 
0.15994 0.0296595 0 
0.172787 0.0297971 0 
0.185643 0.0298831 0 
0.198507 0.0299345 0 
0.211375 0.0299635 0 
0.224248 0.0299787 0 
0.237123 0.0299857 0 
0.25 0.0299876 0 
0 0 0 
0.010128 0.00437179 0 
0.0210176 0.00853529 0 
0.0325621 0.0122452 0 
0.0445976 0.0153701 0 
0.0569676 0.017891 0 
0.0695529 0.0198598 0 
0.0822729 0.0213588 0 
0.0950762 0.0224757 0 
0.107931 0.0232916 0 
0.120816 0.0238757 0 
0.133719 0.0242849 0 
0.146633 0.0245648 0 
0.159553 0.0247509 0 
0.172475 0.0248704 0 
0.185397 0.0249439 0 
0.198319 0.0249868 0 
0.21124 0.0250102 0 
0.224161 0.0250219 0 
0.237081 0.025027 0 
0.25 0.0250284 0 
0 0 0 
0.0100659 0.00336828 0 
0.0208178 0.00659245 0 
0.0321896 0.00950842 0 
0.0440677 0.0120118 0 
0.0563269 0.0140686 0 
0.0688563 0.0156991 0 
0.0815687 0.0169543 0 
0.0944006 0.0178965 0 
0.107307 0.0185875 0 
0.120258 0.019083 0 
0.133233 0.01943 0 
0.146219 0.0196666 0 
0.159207 0.0198231 0 
0.172192 0.0199228 0 
0.185172 0.0199835 0 
0.198147 0.0200182 0 
0.211116 0.0200367 0 
0.22408 0.0200455 0 
0.237041 0.0200491 0 
0.25 0.0200501 0 
0 0 0 
0.01003 0.00245873 0 
0.0206955 0.00481918 0 
0.0319509 0.0069739 0 
0.0437125 0.00884777 0 
0.0558792 0.0104083 0 
0.0683512 0.0116602 0 
0.081042 0.0126331 0 
0.093882 0.0133683 0 
0.106819 0.0139099 0 
0.119813 0.0142992 0 
0.132839 0.0145719 0 
0.145879 0.0147577 0 
0.15892 0.0148801 0 
0.171956 0.0149578 0 
0.184984 0.0150046 0 
0.198002 0.0150312 0 
0.21101 0.0150449 0 
0.224011 0.0150514 0 
0.237007 0.0150539 0 
0.25 0.0150545 0 
0 0 0 
0.0100095 0.00160937 0 
0.0206222 0.00315706 0 
0.031803 0.00457788 0 
0.0434857 0.00582376 0 
0.0555848 0.00687077 0 
0.0680104 0.00771793 0 
0.0806783 0.00838092 0 
0.093517 0.00888466 0 
0.106469 0.00925714 0 
0.119491 0.00952545 0 
0.132551 0.00971359 0 
0.145628 0.00984171 0 
0.158707 0.00992607 0 
0.171779 0.00997938 0 
0.184841 0.0100114 0 
0.197892 0.0100294 0 
0.21093 0.0100386 0 
0.223959 0.0100428 0 
0.236981 0.0100444 0 
0.25 0.0100448 0 
0 0 0 
0.00999897 0.000796169 0 
0.0205829 0.00156252 0 
0.0317222 0.00226821 0 
0.0433593 0.00288987 0 
0.0554179 0.00341504 0 
0.0678138 0.00384211 0 
0.0804655 0.0041778 0 
0.0933006 0.00443373 0 
0.10626 0.00462344 0 
0.119296 0.0047603 0 
0.132375 0.00485635 0 
0.145474 0.00492176 0 
0.158575 0.00496479 0 
0.17167 0.00499195 0 
0.184753 0.00500821 0 
0.197823 0.0050173 0 
0.21088 0.00502193 0 
0.223926 0.00502401 0 
0.236965 0.00502479 0 
0.25 0.00502497 0 
0 0 0 
0.00999572 9.491e-18 0 
0.0205706 2.08064e-17 0 
0.0316965 3.45149e-17 0 
0.0433188 4.53501e-17 0 
0.0553638 5.64259e-17 0 
0.0677496 7.01638e-17 0 
0.0803954 8.68954e-17 0 
0.093229 1.04385e-16 0 
0.10619 1.13855e-16 0 
0.119231 1.35316e-16 0 
0.132316 1.53936e-16 0 
0.145422 1.57507e-16 0 
0.158531 1.74407e-16 0 
0.171633 2.02915e-16 0 
0.184723 2.19619e-16 0 
0.1978 2.2566e-16 0 
0.210863 2.23512e-16 0 
0.223915 2.15977e-16 0 
0.23696 2.22465e-16 0 
0.25 2.33673e-16 0 
0 0 0 
0.00999897 -0.000796169 0 
0.0205829 -0.00156252 0 
0.0317222 -0.00226821 0 
0.0433593 -0.00288987 0 
0.0554179 -0.00341504 0 
0.0678138 -0.00384211 0 
0.0804655 -0.0041778 0 
0.0933006 -0.00443373 0 
0.10626 -0.00462344 0 
0.119296 -0.0047603 0 
0.132375 -0.00485635 0 
0.145474 -0.00492176 0 
0.158575 -0.00496479 0 
0.17167 -0.00499195 0 
0.184753 -0.00500821 0 
0.197823 -0.0050173 0 
0.21088 -0.00502193 0 
0.223926 -0.00502401 0 
0.236965 -0.00502479 0 
0.25 -0.00502497 0 
0 0 0 
0.0100095 -0.00160937 0 
0.0206222 -0.00315706 0 
0.031803 -0.00457788 0 
0.0434857 -0.00582376 0 
0.0555848 -0.00687077 0 
0.0680104 -0.00771793 0 
0.0806783 -0.00838092 0 
0.093517 -0.00888466 0 
0.106469 -0.00925714 0 
0.119491 -0.00952545 0 
0.132551 -0.00971359 0 
0.145628 -0.00984171 0 
0.158707 -0.00992607 0 
0.171779 -0.00997938 0 
0.184841 -0.0100114 0 
0.197892 -0.0100294 0 
0.21093 -0.0100386 0 
0.223959 -0.0100428 0 
0.236981 -0.0100444 0 
0.25 -0.0100448 0 
0 0 0 
0.01003 -0.00245873 0 
0.0206955 -0.00481918 0 
0.0319509 -0.0069739 0 
0.0437125 -0.00884777 0 
0.0558792 -0.0104083 0 
0.0683512 -0.0116602 0 
0.081042 -0.0126331 0 
0.093882 -0.0133683 0 
0.106819 -0.0139099 0 
0.119813 -0.0142992 0 
0.132839 -0.0145719 0 
0.145879 -0.0147577 0 
0.15892 -0.0148801 0 
0.171956 -0.0149578 0 
0.184984 -0.0150046 0 
0.198002 -0.0150312 0 
0.21101 -0.0150449 0 
0.224011 -0.0150514 0 
0.237007 -0.0150539 0 
0.25 -0.0150545 0 
0 0 0 
0.0100659 -0.00336828 0 
0.0208178 -0.00659245 0 
0.0321896 -0.00950842 0 
0.0440677 -0.0120118 0 
0.0563269 -0.0140686 0 
0.0688563 -0.0156991 0 
0.0815687 -0.0169543 0 
0.0944006 -0.0178965 0 
0.107307 -0.0185875 0 
0.120258 -0.019083 0 
0.133233 -0.01943 0 
0.146219 -0.0196666 0 
0.159207 -0.0198231 0 
0.172192 -0.0199228 0 
0.185172 -0.0199835 0 
0.198147 -0.0200182 0 
0.211116 -0.0200367 0 
0.22408 -0.0200455 0 
0.237041 -0.0200491 0 
0.25 -0.0200501 0 
0 0 0 
0.010128 -0.00437179 0 
0.0210176 -0.00853529 0 
0.0325621 -0.0122452 0 
0.0445976 -0.0153701 0 
0.0569676 -0.017891 0 
0.0695529 -0.0198598 0 
0.0822729 -0.0213588 0 
0.0950762 -0.0224757 0 
0.107931 -0.0232916 0 
0.120816 -0.0238757 0 
0.133719 -0.0242849 0 
0.146633 -0.0245648 0 
0.159553 -0.0247509 0 
0.172475 -0.0248704 0 
0.185397 -0.0249439 0 
0.198319 -0.0249868 0 
0.21124 -0.0250102 0 
0.224161 -0.0250219 0 
0.237081 -0.025027 0 
0.25 -0.0250284 0 
0 0 0 
0.0102389 -0.00552252 0 
0.0213509 -0.0107322 0 
0.0331447 -0.015264 0 
0.0453752 -0.018979 0 
0.0578553 -0.0219078 0 
0.0704726 -0.0241572 0 
0.0831664 -0.0258509 0 
0.095906 -0.0271049 0 
0.108676 -0.0280184 0 
0.121468 -0.0286724 0 
0.134278 -0.0291319 0 
0.147103 -0.0294478 0 
0.15994 -0.0296595 0 
0.172787 -0.0297971 0 
0.185643 -0.0298831 0 
0.198507 -0.0299345 0 
0.211375 -0.0299635 0 
0.224248 -0.0299787 0 
0.237123 -0.0299857 0 
0.25 -0.0299876 0 
0 0 0 
0.0104495 -0.0069157 0 
0.0219356 -0.0133118 0 
0.0340734 -0.0186596 0 
0.0465078 -0.0228872 0 
0.0590548 -0.0261357 0 
0.0716425 -0.0285908 0 
0.0842496 -0.030423 0 
0.096874 -0.0317744 0 
0.109519 -0.0327587 0 
0.122187 -0.0334656 0 
0.13488 -0.033965 0 
0.147599 -0.0343112 0 
0.160343 -0.0345459 0 
0.173108 -0.0347007 0 
0.185894 -0.0347996 0 
0.198695 -0.0348605 0 
0.21151 -0.0348961 0 
0.224335 -0.0349156 0 
0.237166 -0.0349251 0 
0.25 -0.0349279 0 
0 0 0 
0.0108991 -0.00874703 0 
0.0230379 -0.0164668 0 
0.0355803 -0.0225232 0 
0.0481323 -0.0271145 0 
0.0606219 -0.0305618 0 
0.0730667 -0.0331379 0 
0.0854979 -0.0350527 0 
0.0979415 -0.0364658 0 
0.110415 -0.037499 0 
0.122928 -0.0382458 0 
0.135486 -0.0387781 0 
0.148087 -0.0391515 0 
0.160731 -0.0394083 0 
0.173413 -0.039581 0 
0.186127 -0.0396941 0 
0.198869 -0.0397658 0 
0.211633 -0.0398095 0 
0.224413 -0.0398346 0 
0.237204 -0.0398472 0 
0.25 -0.0398511 0 
0 0 0 
0.0120901 -0.0114719 0 
0.0252741 -0.0204234 0 
0.0379902 -0.0268862 0 
0.0503596 -0.0316198 0 
0.0625571 -0.0351318 0 
0.0746961 -0.0377514 0 
0.0868438 -0.0397046 0 
0.099038 -0.0411548 0 
0.111298 -0.0422238 0 
0.123633 -0.0430041 0 
0.136042 -0.0435671 0 
0.148523 -0.0439677 0 
0.161068 -0.044248 0 
0.17367 -0.0444405 0 
0.18632 -0.0445698 0 
0.19901 -0.0446544 0 
0.211731 -0.0447077 0 
0.224474 -0.0447396 0 
0.237233 -0.0447562 0 
0.25 -0.0447614 0 
0 0 0 
0.0166873 -0.0161098 0 
0.0295384 -0.0252853 0 
0.0414716 -0.0316255 0 
0.0531259 -0.0362707 0 
0.0647327 -0.0397461 0 
0.0763954 -0.0423642 0 
0.0881626 -0.0443366 0 
0.100055 -0.0458168 0 
0.112077 -0.0469203 0 
0.124224 -0.0477358 0 
0.136487 -0.0483323 0 
0.148855 -0.0487631 0 
0.161313 -0.0490701 0 
0.173848 -0.0492853 0 
0.186447 -0.0494333 0 
0.199099 -0.0495328 0 
0.21179 -0.0495975 0 
0.224511 -0.0496373 0 
0.237251 -0.0496586 0 
0.25 -0.0496653 0 
CELL_DATA 400
TENSORS sigma float 
301.148 98.251 0 98.251 47.027 0 0 0 82.2029 
270.78 48.6608 0 48.6608 14.8846 0 0 0 69.5041 
254.284 29.708 0 29.708 6.89654 0 0 0 64.3585 
246.614 19.9147 0 19.9147 3.81289 0 0 0 62.0409 
243.555 13.9259 0 13.9259 2.30775 0 0 0 61.0181 
242.957 9.91257 0 9.91257 1.47 0 0 0 60.6564 
243.686 7.08445 0 7.08445 0.96354 0 0 0 60.6482 
245.106 5.03801 0 5.03801 0.639224 0 0 0 60.8277 
246.839 3.53982 0 3.53982 0.422582 0 0 0 61.0998 
248.658 2.4412 0 2.4412 0.273269 0 0 0 61.4079 
250.424 1.64035 0 1.64035 0.168033 0 0 0 61.7185 
252.057 1.06382 0 1.06382 0.0927642 0 0 0 62.0118 
253.513 0.656727 0 0.656727 0.0385039 0 0 0 62.2768 
254.773 0.377237 0 0.377237 -0.000678107 0 0 0 62.5081 
255.832 0.19308 0 0.19308 -0.0288497 0 0 0 62.7037 
256.694 0.0792319 0 0.0792319 -0.0488783 0 0 0 62.8638 
257.368 0.0162041 0 0.0162041 -0.0628141 0 0 0 62.9892 
257.862 -0.0113052 0 -0.0113052 -0.0721179 0 0 0 63.0816 
258.187 -0.0155274 0 -0.0155274 -0.077796 0 0 0 63.1422 
258.347 -0.00659293 0 -0.00659293 -0.0804819 0 0 0 63.1722 
255.758 76.2707 0 76.2707 77.9329 0 0 0 86.3557 
264.396 58.1354 0 58.1354 35.2393 0 0 0 74.97 
260.581 37.9336 0 37.9336 17.8547 0 0 0 69.248 
255.844 24.7593 0 24.7593 10.1825 0 0 0 66.0688 
252.651 16.3395 0 16.3395 6.3111 0 0 0 64.2514 
251.01 10.7933 0 10.7933 4.12463 0 0 0 63.2237 
250.505 7.04347 0 7.04347 2.78058 0 0 0 62.6727 
250.744 4.47165 0 4.47165 1.90137 0 0 0 62.4141 
251.431 2.7027 0 2.7027 1.29998 0 0 0 62.3343 
252.354 1.49558 0 1.49558 0.875851 0 0 0 62.361 
253.371 0.687731 0 0.687731 0.570945 0 0 0 62.4475 
254.386 0.165514 0 0.165514 0.349526 0 0 0 62.5634 
255.34 -0.152434 0 -0.152434 0.188279 0 0 0 62.6891 
256.197 -0.325144 0 -0.325144 0.0712185 0 0 0 62.812 
256.938 -0.39566 0 -0.39566 -0.0130459 0 0 0 62.9244 
257.554 -0.395336 0 -0.395336 -0.0728278 0 0 0 63.0215 
258.043 -0.346923 0 -0.346923 -0.114245 0 0 0 63.1007 
258.407 -0.266879 0 -0.266879 -0.141748 0 0 0 63.1608 
258.647 -0.167189 0 -0.167189 -0.158447 0 0 0 63.201 
258.766 -0.0568507 0 -0.0568507 -0.166317 0 0 0 63.2212 
240.769 60.0758 0 60.0758 81.0638 0 0 0 85.6633 
252.897 52.306 0 52.306 50.316 0 0 0 78.4032 
257.716 39.0241 0 39.0241 29.8275 0 0 0 72.9679 
258.032 27.1159 0 27.1159 18.233 0 0 0 69.3727 
257.024 18.2155 0 18.2155 11.6213 0 0 0 67.0284 
256.029 11.9078 0 11.9078 7.65849 0 0 0 65.5023 
255.428 7.51501 0 7.51501 5.15213 0 0 0 64.5151 
255.241 4.48707 0 4.48707 3.49288 0 0 0 63.8874 
255.377 2.42747 0 2.42747 2.35586 0 0 0 63.5008 
255.73 1.05597 0 1.05597 1.55811 0 0 0 63.2757 
256.208 0.173526 0 0.173526 0.990474 0 0 0 63.1576 
256.739 -0.362529 0 -0.362529 0.584123 0 0 0 63.109 
257.272 -0.655123 0 -0.655123 0.293352 0 0 0 63.1036 
257.774 -0.778603 0 -0.778603 0.0864914 0 0 0 63.1233 
258.221 -0.786461 0 -0.786461 -0.0591065 0 0 0 63.1555 
258.602 -0.716844 0 -0.716844 -0.159947 0 0 0 63.1915 
258.91 -0.596622 0 -0.596622 -0.228112 0 0 0 63.2256 
259.141 -0.444468 0 -0.444468 -0.272324 0 0 0 63.2539 
259.296 -0.27328 0 -0.27328 -0.298637 0 0 0 63.2739 
259.373 -0.0921221 0 -0.0921221 -0.31087 0 0 0 63.2842 
234.27 47.9574 0 47.9574 80.9125 0 0 0 85.085 
245.542 44.0059 0 44.0059 57.6876 0 0 0 79.9666 
253.078 35.6799 0 35.6799 38.8171 0 0 0 75.4125 
256.813 26.5231 0 26.5231 25.7591 0 0 0 71.8894 
258.224 18.5981 0 18.5981 17.2096 0 0 0 69.3082 
258.575 12.4339 0 12.4339 11.6197 0 0 0 67.4566 
258.565 7.8918 0 7.8918 7.89493 0 0 0 66.142 
258.506 4.6575 0 4.6575 5.35546 0 0 0 65.2161 
258.509 2.42068 0 2.42068 3.58993 0 0 0 64.5705 
258.594 0.923662 0 0.923662 2.34576 0 0 0 64.1264 
258.746 -0.0346241 0 -0.0346241 1.46279 0 0 0 63.8267 
258.94 -0.606633 0 -0.606633 0.835498 0 0 0 63.6295 
259.152 -0.906048 0 -0.906048 0.391736 0 0 0 63.5042 
259.364 -1.01649 0 -1.01649 0.0805856 0 0 0 63.4284 
259.56 -0.998584 0 -0.998584 -0.134703 0 0 0 63.3857 
259.732 -0.895599 0 -0.895599 -0.280973 0 0 0 63.3643 
259.874 -0.737824 0 -0.737824 -0.377833 0 0 0 63.3556 
259.983 -0.546066 0 -0.546066 -0.439385 0 0 0 63.3536 
260.056 -0.334417 0 -0.334417 -0.47536 0 0 0 63.3543 
260.092 -0.112519 0 -0.112519 -0.491874 0 0 0 63.3552 
231.048 38.2253 0 38.2253 80.4752 0 0 0 84.8095 
241.115 35.9221 0 35.9221 61.5657 0 0 0 80.7998 
249.194 30.5744 0 30.5744 44.8411 0 0 0 76.9721 
254.615 23.9278 0 23.9278 31.7754 0 0 0 73.7044 
257.793 17.5086 0 17.5086 22.2429 0 0 0 71.0871 
259.483 12.0807 0 12.0807 15.4784 0 0 0 69.0615 
260.312 7.83657 0 7.83657 10.7057 0 0 0 67.5243 
260.684 4.68837 0 4.68837 7.32702 0 0 0 66.3724 
260.833 2.45024 0 2.45024 4.9231 0 0 0 65.5181 
260.879 0.924835 0 0.924835 3.20745 0 0 0 64.8907 
260.884 -0.0629256 0 -0.0629256 1.98351 0 0 0 64.4349 
260.876 -0.656346 0 -0.656346 1.11416 0 0 0 64.1077 
260.866 -0.96748 0 -0.96748 0.50175 0 0 0 63.8761 
260.858 -1.08124 0 -1.08124 0.0754973 0 0 0 63.7148 
260.854 -1.06033 0 -1.06033 -0.21651 0 0 0 63.6045 
260.852 -0.949992 0 -0.949992 -0.412515 0 0 0 63.5308 
260.852 -0.782088 0 -0.782088 -0.540542 0 0 0 63.4829 
260.853 -0.578543 0 -0.578543 -0.620743 0 0 0 63.4532 
260.854 -0.354193 0 -0.354193 -0.667008 0 0 0 63.4361 
260.854 -0.119155 0 -0.119155 -0.688043 0 0 0 63.4284 
229.317 29.9287 0 29.9287 80.1218 0 0 0 84.7033 
238.408 28.4698 0 28.4698 63.8189 0 0 0 81.3188 
246.36 24.9423 0 24.9423 48.8292 0 0 0 77.9936 
252.493 20.2321 0 20.2321 36.2565 0 0 0 74.987 
256.758 15.3257 0 15.3257 26.3646 0 0 0 72.4249 
259.492 10.8951 0 10.8951 18.8714 0 0 0 70.3258 
261.124 7.24585 0 7.24585 13.3088 0 0 0 68.6505 
262.023 4.43024 0 4.43024 9.22274 0 0 0 67.3379 
262.457 2.36904 0 2.36904 6.24089 0 0 0 66.3238 
262.608 0.933006 0 0.933006 4.0778 0 0 0 65.5497 
262.593 -0.0130802 0 -0.0130802 2.51996 0 0 0 64.9652 
262.488 -0.590283 0 -0.590283 1.40853 0 0 0 64.5287 
262.341 -0.898596 0 -0.898596 0.625052 0 0 0 64.2064 
262.181 -1.01649 0 -1.01649 0.0809448 0 0 0 63.9714 
262.026 -1.00327 0 -1.00327 -0.29012 0 0 0 63.8023 
261.887 -0.902373 0 -0.902373 -0.537604 0 0 0 63.683 
261.772 -0.744721 0 -0.744721 -0.697995 0 0 0 63.6008 
261.683 -0.551764 0 -0.551764 -0.797612 0 0 0 63.5465 
261.623 -0.338113 0 -0.338113 -0.85461 0 0 0 63.5137 
261.593 -0.113795 0 -0.113795 -0.880369 0 0 0 63.4983 
228.346 22.5404 0 22.5404 79.8747 0 0 0 84.6773 
236.725 21.5871 0 21.5871 65.2156 0 0 0 81.6688 
244.396 19.2494 0 19.2494 51.4777 0 0 0 78.677 
250.781 15.9955 0 15.9955 39.4621 0 0 0 75.8807 
255.658 12.4319 0 12.4319 29.5218 0 0 0 73.3984 
259.113 9.0556 0 9.0556 21.6222 0 0 0 71.2803 
261.392 6.1579 0 6.1579 15.5161 0 0 0 69.5258 
262.78 3.84652 0 3.84652 10.887 0 0 0 68.105 
263.531 2.10951 0 2.10951 7.42976 0 0 0 66.9748 
263.85 0.873898 0 0.873898 4.88096 0 0 0 66.0891 
263.889 0.0455909 0 0.0455909 3.02579 0 0 0 65.4037 
263.759 -0.468227 0 -0.468227 1.6938 0 0 0 64.8798 
263.538 -0.74863 0 -0.74863 0.751899 0 0 0 64.484 
263.279 -0.861533 0 -0.861533 0.0973069 0 0 0 64.1885 