# vtk DataFile Version 2.0
Generated by inSilico's base::io::vtk::LegacyWriter
ASCII
DATASET UNSTRUCTURED_GRID
POINTS 441 float
0 0 0 
0.05 0 0 
0.1 0 0 
0.15 0 0 
0.2 0 0 
0.25 0 0 
0.3 0 0 
0.35 0 0 
0.4 0 0 
0.45 0 0 
0.5 0 0 
0.55 0 0 
0.6 0 0 
0.65 0 0 
0.7 0 0 
0.75 0 0 
0.8 0 0 
0.85 0 0 
0.9 0 0 
0.95 0 0 
1 0 0 
0 0.05 0 
0.05 0.05 0 
0.1 0.05 0 
0.15 0.05 0 
0.2 0.05 0 
0.25 0.05 0 
0.3 0.05 0 
0.35 0.05 0 
0.4 0.05 0 
0.45 0.05 0 
0.5 0.05 0 
0.55 0.05 0 
0.6 0.05 0 
0.65 0.05 0 
0.7 0.05 0 
0.75 0.05 0 
0.8 0.05 0 
0.85 0.05 0 
0.9 0.05 0 
0.95 0.05 0 
1 0.05 0 
0 0.1 0 
0.05 0.1 0 
0.1 0.1 0 
0.15 0.1 0 
0.2 0.1 0 
0.25 0.1 0 
0.3 0.1 0 
0.35 0.1 0 
0.4 0.1 0 
0.45 0.1 0 
0.5 0.1 0 
0.55 0.1 0 
0.6 0.1 0 
0.65 0.1 0 
0.7 0.1 0 
0.75 0.1 0 
0.8 0.1 0 
0.85 0.1 0 
0.9 0.1 0 
0.95 0.1 0 
1 0.1 0 
0 0.15 0 
0.05 0.15 0 
0.1 0.15 0 
0.15 0.15 0 
0.2 0.15 0 
0.25 0.15 0 
0.3 0.15 0 
0.35 0.15 0 
0.4 0.15 0 
0.45 0.15 0 
0.5 0.15 0 
0.55 0.15 0 
0.6 0.15 0 
0.65 0.15 0 
0.7 0.15 0 
0.75 0.15 0 
0.8 0.15 0 
0.85 0.15 0 
0.9 0.15 0 
0.95 0.15 0 
1 0.15 0 
0 0.2 0 
0.05 0.2 0 
0.1 0.2 0 
0.15 0.2 0 
0.2 0.2 0 
0.25 0.2 0 
0.3 0.2 0 
0.35 0.2 0 
0.4 0.2 0 
0.45 0.2 0 
0.5 0.2 0 
0.55 0.2 0 
0.6 0.2 0 
0.65 0.2 0 
0.7 0.2 0 
0.75 0.2 0 
0.8 0.2 0 
0.85 0.2 0 
0.9 0.2 0 
0.95 0.2 0 
1 0.2 0 
0 0.25 0 
0.05 0.25 0 
0.1 0.25 0 
0.15 0.25 0 
0.2 0.25 0 
0.25 0.25 0 
0.3 0.25 0 
0.35 0.25 0 
0.4 0.25 0 
0.45 0.25 0 
0.5 0.25 0 
0.55 0.25 0 
0.6 0.25 0 
0.65 0.25 0 
0.7 0.25 0 
0.75 0.25 0 
0.8 0.25 0 
0.85 0.25 0 
0.9 0.25 0 
0.95 0.25 0 
1 0.25 0 
0 0.3 0 
0.05 0.3 0 
0.1 0.3 0 
0.15 0.3 0 
0.2 0.3 0 
0.25 0.3 0 
0.3 0.3 0 
0.35 0.3 0 
0.4 0.3 0 
0.45 0.3 0 
0.5 0.3 0 
0.55 0.3 0 
0.6 0.3 0 
0.65 0.3 0 
0.7 0.3 0 
0.75 0.3 0 
0.8 0.3 0 
0.85 0.3 0 
0.9 0.3 0 
0.95 0.3 0 
1 0.3 0 
0 0.35 0 
0.05 0.35 0 
0.1 0.35 0 
0.15 0.35 0 
0.2 0.35 0 
0.25 0.35 0 
0.3 0.35 0 
0.35 0.35 0 
0.4 0.35 0 
0.45 0.35 0 
0.5 0.35 0 
0.55 0.35 0 
0.6 0.35 0 
0.65 0.35 0 
0.7 0.35 0 
0.75 0.35 0 
0.8 0.35 0 
0.85 0.35 0 
0.9 0.35 0 
0.95 0.35 0 
1 0.35 0 
0 0.4 0 
0.05 0.4 0 
0.1 0.4 0 
0.15 0.4 0 
0.2 0.4 0 
0.25 0.4 0 
0.3 0.4 0 
0.35 0.4 0 
0.4 0.4 0 
0.45 0.4 0 
0.5 0.4 0 
0.55 0.4 0 
0.6 0.4 0 
0.65 0.4 0 
0.7 0.4 0 
0.75 0.4 0 
0.8 0.4 0 
0.85 0.4 0 
0.9 0.4 0 
0.95 0.4 0 
1 0.4 0 
0 0.45 0 
0.05 0.45 0 
0.1 0.45 0 
0.15 0.45 0 
0.2 0.45 0 
0.25 0.45 0 
0.3 0.45 0 
0.35 0.45 0 
0.4 0.45 0 
0.45 0.45 0 
0.5 0.45 0 
0.55 0.45 0 
0.6 0.45 0 
0.65 0.45 0 
0.7 0.45 0 
0.75 0.45 0 
0.8 0.45 0 
0.85 0.45 0 
0.9 0.45 0 
0.95 0.45 0 
1 0.45 0 
0 0.5 0 
0.05 0.5 0 
0.1 0.5 0 
0.15 0.5 0 
0.2 0.5 0 
0.25 0.5 0 
0.3 0.5 0 
0.35 0.5 0 
0.4 0.5 0 
0.45 0.5 0 
0.5 0.5 0 
0.55 0.5 0 
0.6 0.5 0 
0.65 0.5 0 
0.7 0.5 0 
0.75 0.5 0 
0.8 0.5 0 
0.85 0.5 0 
0.9 0.5 0 
0.95 0.5 0 
1 0.5 0 
0 0.55 0 
0.05 0.55 0 
0.1 0.55 0 
0.15 0.55 0 
0.2 0.55 0 
0.25 0.55 0 
0.3 0.55 0 
0.35 0.55 0 
0.4 0.55 0 
0.45 0.55 0 
0.5 0.55 0 
0.55 0.55 0 
0.6 0.55 0 
0.65 0.55 0 
0.7 0.55 0 
0.75 0.55 0 
0.8 0.55 0 
0.85 0.55 0 
0.9 0.55 0 
0.95 0.55 0 
1 0.55 0 
0 0.6 0 
0.05 0.6 0 
0.1 0.6 0 
0.15 0.6 0 
0.2 0.6 0 
0.25 0.6 0 
0.3 0.6 0 
0.35 0.6 0 
0.4 0.6 0 
0.45 0.6 0 
0.5 0.6 0 
0.55 0.6 0 
0.6 0.6 0 
0.65 0.6 0 
0.7 0.6 0 
0.75 0.6 0 
0.8 0.6 0 
0.85 0.6 0 
0.9 0.6 0 
0.95 0.6 0 
1 0.6 0 
0 0.65 0 
0.05 0.65 0 
0.1 0.65 0 
0.15 0.65 0 
0.2 0.65 0 
0.25 0.65 0 
0.3 0.65 0 
0.35 0.65 0 
0.4 0.65 0 
0.45 0.65 0 
0.5 0.65 0 
0.55 0.65 0 
0.6 0.65 0 
0.65 0.65 0 
0.7 0.65 0 
0.75 0.65 0 
0.8 0.65 0 
0.85 0.65 0 
0.9 0.65 0 
0.95 0.65 0 
1 0.65 0 
0 0.7 0 
0.05 0.7 0 
0.1 0.7 0 
0.15 0.7 0 
0.2 0.7 0 
0.25 0.7 0 
0.3 0.7 0 
0.35 0.7 0 
0.4 0.7 0 
0.45 0.7 0 
0.5 0.7 0 
0.55 0.7 0 
0.6 0.7 0 
0.65 0.7 0 
0.7 0.7 0 
0.75 0.7 0 
0.8 0.7 0 
0.85 0.7 0 
0.9 0.7 0 
0.95 0.7 0 
1 0.7 0 
0 0.75 0 
0.05 0.75 0 
0.1 0.75 0 
0.15 0.75 0 
0.2 0.75 0 
0.25 0.75 0 
0.3 0.75 0 
0.35 0.75 0 
0.4 0.75 0 
0.45 0.75 0 
0.5 0.75 0 
0.55 0.75 0 
0.6 0.75 0 
0.65 0.75 0 
0.7 0.75 0 
0.75 0.75 0 
0.8 0.75 0 
0.85 0.75 0 
0.9 0.75 0 
0.95 0.75 0 
1 0.75 0 
0 0.8 0 
0.05 0.8 0 
0.1 0.8 0 
0.15 0.8 0 
0.2 0.8 0 
0.25 0.8 0 
0.3 0.8 0 
0.35 0.8 0 
0.4 0.8 0 
0.45 0.8 0 
0.5 0.8 0 
0.55 0.8 0 
0.6 0.8 0 
0.65 0.8 0 
0.7 0.8 0 
0.75 0.8 0 
0.8 0.8 0 
0.85 0.8 0 
0.9 0.8 0 
0.95 0.8 0 
1 0.8 0 
0 0.85 0 
0.05 0.85 0 
0.1 0.85 0 
0.15 0.85 0 
0.2 0.85 0 
0.25 0.85 0 
0.3 0.85 0 
0.35 0.85 0 
0.4 0.85 0 
0.45 0.85 0 
0.5 0.85 0 
0.55 0.85 0 
0.6 0.85 0 
0.65 0.85 0 
0.7 0.85 0 
0.75 0.85 0 
0.8 0.85 0 
0.85 0.85 0 
0.9 0.85 0 
0.95 0.85 0 
1 0.85 0 
0 0.9 0 
0.05 0.9 0 
0.1 0.9 0 
0.15 0.9 0 
0.2 0.9 0 
0.25 0.9 0 
0.3 0.9 0 
0.35 0.9 0 
0.4 0.9 0 
0.45 0.9 0 
0.5 0.9 0 
0.55 0.9 0 
0.6 0.9 0 
0.65 0.9 0 
0.7 0.9 0 
0.75 0.9 0 
0.8 0.9 0 
0.85 0.9 0 
0.9 0.9 0 
0.95 0.9 0 
1 0.9 0 
0 0.95 0 
0.05 0.95 0 
0.1 0.95 0 
0.15 0.95 0 
0.2 0.95 0 
0.25 0.95 0 
0.3 0.95 0 
0.35 0.95 0 
0.4 0.95 0 
0.45 0.95 0 
0.5 0.95 0 
0.55 0.95 0 
0.6 0.95 0 
0.65 0.95 0 
0.7 0.95 0 
0.75 0.95 0 
0.8 0.95 0 
0.85 0.95 0 
0.9 0.95 0 
0.95 0.95 0 
1 0.95 0 
0 1 0 
0.05 1 0 
0.1 1 0 
0.15 1 0 
0.2 1 0 
0.25 1 0 
0.3 1 0 
0.35 1 0 
0.4 1 0 
0.45 1 0 
0.5 1 0 
0.55 1 0 
0.6 1 0 
0.65 1 0 
0.7 1 0 
0.75 1 0 
0.8 1 0 
0.85 1 0 
0.9 1 0 
0.95 1 0 
1 1 0 
CELLS 400 2000
4 0 1 22 21 
4 1 2 23 22 
4 2 3 24 23 
4 3 4 25 24 
4 4 5 26 25 
4 5 6 27 26 
4 6 7 28 27 
4 7 8 29 28 
4 8 9 30 29 
4 9 10 31 30 
4 10 11 32 31 
4 11 12 33 32 
4 12 13 34 33 
4 13 14 35 34 
4 14 15 36 35 
4 15 16 37 36 
4 16 17 38 37 
4 17 18 39 38 
4 18 19 40 39 
4 19 20 41 40 
4 21 22 43 42 
4 22 23 44 43 
4 23 24 45 44 
4 24 25 46 45 
4 25 26 47 46 
4 26 27 48 47 
4 27 28 49 48 
4 28 29 50 49 
4 29 30 51 50 
4 30 31 52 51 
4 31 32 53 52 
4 32 33 54 53 
4 33 34 55 54 
4 34 35 56 55 
4 35 36 57 56 
4 36 37 58 57 
4 37 38 59 58 
4 38 39 60 59 
4 39 40 61 60 
4 40 41 62 61 
4 42 43 64 63 
4 43 44 65 64 
4 44 45 66 65 
4 45 46 67 66 
4 46 47 68 67 
4 47 48 69 68 
4 48 49 70 69 
4 49 50 71 70 
4 50 51 72 71 
4 51 52 73 72 
4 52 53 74 73 
4 53 54 75 74 
4 54 55 76 75 
4 55 56 77 76 
4 56 57 78 77 
4 57 58 79 78 
4 58 59 80 79 
4 59 60 81 80 
4 60 61 82 81 
4 61 62 83 82 
4 63 64 85 84 
4 64 65 86 85 
4 65 66 87 86 
4 66 67 88 87 
4 67 68 89 88 
4 68 69 90 89 
4 69 70 91 90 
4 70 71 92 91 
4 71 72 93 92 
4 72 73 94 93 
4 73 74 95 94 
4 74 75 96 95 
4 75 76 97 96 
4 76 77 98 97 
4 77 78 99 98 
4 78 79 100 99 
4 79 80 101 100 
4 80 81 102 101 
4 81 82 103 102 
4 82 83 104 103 
4 84 85 106 105 
4 85 86 107 106 
4 86 87 108 107 
4 87 88 109 108 
4 88 89 110 109 
4 89 90 111 110 
4 90 91 112 111 
4 91 92 113 112 
4 92 93 114 113 
4 93 94 115 114 
4 94 95 116 115 
4 95 96 117 116 
4 96 97 118 117 
4 97 98 119 118 
4 98 99 120 119 
4 99 100 121 120 
4 100 101 122 121 
4 101 102 123 122 
4 102 103 124 123 
4 103 104 125 124 
4 105 106 127 126 
4 106 107 128 127 
4 107 108 129 128 
4 108 109 130 129 
4 109 110 131 130 
4 110 111 132 131 
4 111 112 133 132 
4 112 113 134 133 
4 113 114 135 134 
4 114 115 136 135 
4 115 116 137 136 
4 116 117 138 137 
4 117 118 139 138 
4 118 119 140 139 
4 119 120 141 140 
4 120 121 142 141 
4 121 122 143 142 
4 122 123 144 143 
4 123 124 145 144 
4 124 125 146 145 
4 126 127 148 147 
4 127 128 149 148 
4 128 129 150 149 
4 129 130 151 150 
4 130 131 152 151 
4 131 132 153 152 
4 132 133 154 153 
4 133 134 155 154 
4 134 135 156 155 
4 135 136 157 156 
4 136 137 158 157 
4 137 138 159 158 
4 138 139 160 159 
4 139 140 161 160 
4 140 141 162 161 
4 141 142 163 162 
4 142 143 164 163 
4 143 144 165 164 
4 144 145 166 165 
4 145 146 167 166 
4 147 148 169 168 
4 148 149 170 169 
4 149 150 171 170 
4 150 151 172 171 
4 151 152 173 172 
4 152 153 174 173 
4 153 154 175 174 
4 154 155 176 175 
4 155 156 177 176 
4 156 157 178 177 
4 157 158 179 178 
4 158 159 180 179 
4 159 160 181 180 
4 160 161 182 181 
4 161 162 183 182 
4 162 163 184 183 
4 163 164 185 184 
4 164 165 186 185 
4 165 166 187 186 
4 166 167 188 187 
4 168 169 190 189 
4 169 170 191 190 
4 170 171 192 191 
4 171 172 193 192 
4 172 173 194 193 
4 173 174 195 194 
4 174 175 196 195 
4 175 176 197 196 
4 176 177 198 197 
4 177 178 199 198 
4 178 179 200 199 
4 179 180 201 200 
4 180 181 202 201 
4 181 182 203 202 
4 182 183 204 203 
4 183 184 205 204 
4 184 185 206 205 
4 185 186 207 206 
4 186 187 208 207 
4 187 188 209 208 
4 189 190 211 210 
4 190 191 212 211 
4 191 192 213 212 
4 192 193 214 213 
4 193 194 215 214 
4 194 195 216 215 
4 195 196 217 216 
4 196 197 218 217 
4 197 198 219 218 
4 198 199 220 219 
4 199 200 221 220 
4 200 201 222 221 
4 201 202 223 222 
4 202 203 224 223 
4 203 204 225 224 
4 204 205 226 225 
4 205 206 227 226 
4 206 207 228 227 
4 207 208 229 228 
4 208 209 230 229 
4 210 211 232 231 
4 211 212 233 232 
4 212 213 234 233 
4 213 214 235 234 
4 214 215 236 235 
4 215 216 237 236 
4 216 217 238 237 
4 217 218 239 238 
4 218 219 240 239 
4 219 220 241 240 
4 220 221 242 241 
4 221 222 243 242 
4 222 223 244 243 
4 223 224 245 244 
4 224 225 246 245 
4 225 226 247 246 
4 226 227 248 247 
4 227 228 249 248 
4 228 229 250 249 
4 229 230 251 250 
4 231 232 253 252 
4 232 233 254 253 
4 233 234 255 254 
4 234 235 256 255 
4 235 236 257 256 
4 236 237 258 257 
4 237 238 259 258 
4 238 239 260 259 
4 239 240 261 260 
4 240 241 262 261 
4 241 242 263 262 
4 242 243 264 263 
4 243 244 265 264 
4 244 245 266 265 
4 245 246 267 266 
4 246 247 268 267 
4 247 248 269 268 
4 248 249 270 269 
4 249 250 271 270 
4 250 251 272 271 
4 252 253 274 273 
4 253 254 275 274 
4 254 255 276 275 
4 255 256 277 276 
4 256 257 278 277 
4 257 258 279 278 
4 258 259 280 279 
4 259 260 281 280 
4 260 261 282 281 
4 261 262 283 282 
4 262 263 284 283 
4 263 264 285 284 
4 264 265 286 285 
4 265 266 287 286 
4 266 267 288 287 
4 267 268 289 288 
4 268 269 290 289 
4 269 270 291 290 
4 270 271 292 291 
4 271 272 293 292 
4 273 274 295 294 
4 274 275 296 295 
4 275 276 297 296 
4 276 277 298 297 
4 277 278 299 298 
4 278 279 300 299 
4 279 280 301 300 
4 280 281 302 301 
4 281 282 303 302 
4 282 283 304 303 
4 283 284 305 304 
4 284 285 306 305 
4 285 286 307 306 
4 286 287 308 307 
4 287 288 309 308 
4 288 289 310 309 
4 289 290 311 310 
4 290 291 312 311 
4 291 292 313 312 
4 292 293 314 313 
4 294 295 316 315 
4 295 296 317 316 
4 296 297 318 317 
4 297 298 319 318 
4 298 299 320 319 
4 299 300 321 320 
4 300 301 322 321 
4 301 302 323 322 
4 302 303 324 323 
4 303 304 325 324 
4 304 305 326 325 
4 305 306 327 326 
4 306 307 328 327 
4 307 308 329 328 
4 308 309 330 329 
4 309 310 331 330 
4 310 311 332 331 
4 311 312 333 332 
4 312 313 334 333 
4 313 314 335 334 
4 315 316 337 336 
4 316 317 338 337 
4 317 318 339 338 
4 318 319 340 339 
4 319 320 341 340 
4 320 321 342 341 
4 321 322 343 342 
4 322 323 344 343 
4 323 324 345 344 
4 324 325 346 345 
4 325 326 347 346 
4 326 327 348 347 
4 327 328 349 348 
4 328 329 350 349 
4 329 330 351 350 
4 330 331 352 351 
4 331 332 353 352 
4 332 333 354 353 
4 333 334 355 354 
4 334 335 356 355 
4 336 337 358 357 
4 337 338 359 358 
4 338 339 360 359 
4 339 340 361 360 
4 340 341 362 361 
4 341 342 363 362 
4 342 343 364 363 
4 343 344 365 364 
4 344 345 366 365 
4 345 346 367 366 
4 346 347 368 367 
4 347 348 369 368 
4 348 349 370 369 
4 349 350 371 370 
4 350 351 372 371 
4 351 352 373 372 
4 352 353 374 373 
4 353 354 375 374 
4 354 355 376 375 
4 355 356 377 376 
4 357 358 379 378 
4 358 359 380 379 
4 359 360 381 380 
4 360 361 382 381 
4 361 362 383 382 
4 362 363 384 383 
4 363 364 385 384 
4 364 365 386 385 
4 365 366 387 386 
4 366 367 388 387 
4 367 368 389 388 
4 368 369 390 389 
4 369 370 391 390 
4 370 371 392 391 
4 371 372 393 392 
4 372 373 394 393 
4 373 374 395 394 
4 374 375 396 395 
4 375 376 397 396 
4 376 377 398 397 
4 378 379 400 399 
4 379 380 401 400 
4 380 381 402 401 
4 381 382 403 402 
4 382 383 404 403 
4 383 384 405 404 
4 384 385 406 405 
4 385 386 407 406 
4 386 387 408 407 
4 387 388 409 408 
4 388 389 410 409 
4 389 390 411 410 
4 390 391 412 411 
4 391 392 413 412 
4 392 393 414 413 
4 393 394 415 414 
4 394 395 416 415 
4 395 396 417 416 
4 396 397 418 417 
4 397 398 419 418 
4 399 400 421 420 
4 400 401 422 421 
4 401 402 423 422 
4 402 403 424 423 
4 403 404 425 424 
4 404 405 426 425 
4 405 406 427 426 
4 406 407 428 427 
4 407 408 429 428 
4 408 409 430 429 
4 409 410 431 430 
4 410 411 432 431 
4 411 412 433 432 
4 412 413 434 433 
4 413 414 435 434 
4 414 415 436 435 
4 415 416 437 436 
4 416 417 438 437 
4 417 418 439 438 
4 418 419 440 439 
CELL_TYPES 400
9
9
9
9
9
9
9
9
9
9
9
9
9
9
9
9
9
9
9
9
9
9
9
9
9
9
9
9
9
9
9
9
9
9
9
9
9
9
9
9
9
9
9
9
9
9
9
9
9
9
9
9
9
9
9
9
9
9
9
9
9
9
9
9
9
9
9
9
9
9
9
9
9
9
9
9
9
9
9
9
9
9
9
9
9
9
9
9
9
9
9
9
9
9
9
9
9
9
9
9
9
9
9
9
9
9
9
9
9
9
9
9
9
9
9
9
9
9
9
9
9
9
9
9
9
9
9
9
9
9
9
9
9
9
9
9
9
9
9
9
9
9
9
9
9
9
9
9
9
9
9
9
9
9
9
9
9
9
9
9
9
9
9
9
9
9
9
9
9
9
9
9
9
9
9
9
9
9
9
9
9
9
9
9
9
9
9
9
9
9
9
9
9
9
9
9
9
9
9
9
9
9
9
9
9
9
9
9
9
9
9
9
9
9
9
9
9
9
9
9
9
9
9
9
9
9
9
9
9
9
9
9
9
9
9
9
9
9
9
9
9
9
9
9
9
9
9
9
9
9
9
9
9
9
9
9
9
9
9
9
9
9
9
9
9
9
9
9
9
9
9
9
9
9
9
9
9
9
9
9
9
9
9
9
9
9
9
9
9
9
9
9
9
9
9
9
9
9
9
9
9
9
9
9
9
9
9
9
9
9
9
9
9
9
9
9
9
9
9
9
9
9
9
9
9
9
9
9
9
9
9
9
9
9
9
9
9
9
9
9
9
9
9
9
9
9
9
9
9
9
9
9
9
9
9
9
9
9
9
9
9
9
9
9
9
9
9
9
9
9
9
9
9
9
9
9
9
9
9
9
9
9
9
9
9
9
9
9
9
9
9
9
9
9
9
9
9
9
9
9
POINT_DATA 441
VECTORS disp float 
0 0 0 
0.0222879 0.0218796 0 
0.0399869 0.0342331 0 
0.0566377 0.0427269 0 
0.0730003 0.0489241 0 
0.0893467 0.0535436 0 
0.105796 0.0570124 0 
0.1224 0.0596186 0 
0.13918 0.0615703 0 
0.156136 0.0630234 0 
0.173259 0.0640971 0 
0.190534 0.0648832 0 
0.207943 0.0654527 0 
0.225468 0.0658603 0 
0.243091 0.0661481 0 
0.260795 0.066348 0 
0.278563 0.066484 0 
0.29638 0.0665736 0 
0.314234 0.0666294 0 
0.332111 0.0666597 0 
0.35 0.0666693 0 
0 0 0 
0.0167406 0.0157225 0 
0.0348495 0.0277298 0 
0.0524544 0.0363538 0 
0.0696868 0.0426496 0 
0.0867495 0.0473069 0 
0.103774 0.0507716 0 
0.120836 0.0533495 0 
0.137977 0.0552608 0 
0.155217 0.0566692 0 
0.172561 0.0576983 0 
0.190009 0.0584429 0 
0.207551 0.0589751 0 
0.225179 0.0593506 0 
0.24288 0.0596112 0 
0.260643 0.059789 0 
0.278456 0.0599074 0 
0.296309 0.0599838 0 
0.31419 0.0600305 0 
0.33209 0.0600554 0 
0.35 0.0600632 0 
0 0 0 
0.0152461 0.0120153 0 
0.0321153 0.0224312 0 
0.0495276 0.0305184 0 
0.0669934 0.0366133 0 
0.0844182 0.0411715 0 
0.101818 0.0445675 0 
0.119225 0.0470862 0 
0.136669 0.0489427 0 
0.154166 0.0503 0 
0.171726 0.0512827 0 
0.18935 0.0519859 0 
0.207037 0.0524823 0 
0.224781 0.0528273 0 
0.242577 0.0530627 0 
0.260416 0.0532201 0 
0.27829 0.0533225 0 
0.296194 0.053387 0 
0.314118 0.0534253 0 
0.332055 0.0534454 0 
0.35 0.0534516 0 
0 0 0 
0.0146753 0.00950123 0 
0.0307407 0.0181677 0 
0.0476707 0.025332 0 
0.0650059 0.0309494 0 
0.082511 0.0352405 0 
0.100092 0.0384692 0 
0.11772 0.0408714 0 
0.135387 0.0426398 0 
0.153094 0.0439275 0 
0.170842 0.0448536 0 
0.188631 0.0455107 0 
0.206459 0.0459696 0 
0.224323 0.0462843 0 
0.242219 0.0464956 0 
0.260142 0.046634 0 
0.278087 0.046722 0 
0.29605 0.0467759 0 
0.314026 0.0468071 0 
0.332011 0.046823 0 
0.35 0.0468278 0 
0 0 0 
0.0144096 0.00758385 0 
0.0300037 0.0146608 0 
0.046511 0.0207513 0 
0.0636031 0.0256983 0 
0.0810356 0.0295696 0 
0.098662 0.0325251 0 
0.116403 0.0347406 0 
0.134216 0.0363761 0 
0.15208 0.037566 0 
0.169982 0.0384188 0 
0.187914 0.0390202 0 
0.20587 0.0394367 0 
0.223847 0.0397193 0 
0.241841 0.0399064 0 
0.259848 0.0400268 0 
0.277867 0.0401017 0 
0.295893 0.0401464 0 
0.313925 0.0401714 0 
0.331962 0.0401838 0 
0.35 0.0401875 0 
0 0 0 
0.014272 0.00600028 0 
0.0295821 0.0116646 0 
0.0457764 0.016663 0 
0.0626298 0.0208337 0 
0.0799327 0.0241703 0 
0.0975274 0.0267575 0 
0.115308 0.0287161 0 
0.133206 0.0301694 0 
0.151178 0.0312285 0 
0.169197 0.0319867 0 
0.187245 0.0325195 0 
0.205312 0.0328864 0 
0.223389 0.0331332 0 
0.241473 0.0332949 0 
0.259559 0.0333974 0 
0.277647 0.0334599 0 
0.295736 0.0334963 0 
0.313824 0.0335161 0 
0.331912 0.0335256 0 
0.35 0.0335284 0 
0 0 0 
0.0141963 0.00462063 0 
0.0293298 0.00901084 0 
0.0453042 0.0129466 0 
0.0619611 0.0162945 0 
0.07913 0.019021 0 
0.0966613 0.0211652 0 
0.114439 0.0228046 0 
0.132378 0.0240286 0 
0.15042 0.0249233 0 
0.168524 0.0255642 0 
0.186662 0.0260138 0 
0.204817 0.0263223 0 
0.222979 0.0265287 0 
0.241139 0.0266627 0 
0.259296 0.0267467 0 
0.277446 0.0267971 0 
0.295591 0.0268259 0 
0.31373 0.0268411 0 
0.331866 0.0268483 0 
0.35 0.0268503 0 
0 0 0 
0.0141536 0.00337155 0 
0.0291758 0.00658732 0 
0.0450006 0.00949917 0 
0.0615104 0.012009 0 
0.0785653 0.0140804 0 
0.0960292 0.015728 0 
0.113785 0.0169988 0 
0.13174 0.0179532 0 
0.149823 0.0186532 0 
0.167984 0.0191553 0 
0.186188 0.0195075 0 
0.204411 0.0197486 0 
0.222638 0.0199092 0 
0.24086 0.020013 0 
0.259074 0.0200775 0 
0.277276 0.0201157 0 
0.295467 0.0201372 0 
0.31365 0.0201484 0 
0.331827 0.0201535 0 
0.35 0.0201549 0 
0 0 0 
0.0141298 0.00220623 0 
0.0290838 0.00431535 0 
0.0448122 0.00623694 0 
0.0612214 0.00790743 0 
0.0781923 0.00929862 0 
0.0956006 0.0104144 0 
0.113332 0.0112805 0 
0.131288 0.0119342 0 
0.149394 0.0124151 0 
0.167592 0.0127605 0 
0.18584 0.0130029 0 
0.20411 0.0131686 0 
0.222384 0.0132788 0 
0.240651 0.0133497 0 
0.258906 0.0133935 0 
0.277147 0.0134193 0 
0.295374 0.0134336 0 
0.313589 0.0134409 0 
0.331797 0.0134442 0 
0.35 0.0134451 0 
0 0 0 
0.0141177 0.00109125 0 
0.0290347 0.00213576 0 
0.0447092 0.00309059 0 
0.0610601 0.00392463 0 
0.0779802 0.00462287 0 
0.0953526 0.00518561 0 
0.113065 0.00562426 0 
0.13102 0.00595629 0 
0.149137 0.00620108 0 
0.167354 0.00637712 0 
0.185627 0.00650063 0 
0.203925 0.00658507 0 
0.222227 0.00664114 0 
0.240522 0.00667715 0 
0.258802 0.00669934 0 
0.277066 0.00671235 0 
0.295315 0.00671951 0 
0.313551 0.00672314 0 
0.331778 0.00672475 0 
0.35 0.0067252 0 
0 0 0 
0.014114 1.05879e-18 0 
0.0290193 1.8567e-18 0 
0.0446765 1.80587e-18 0 
0.0610083 1.78555e-18 0 
0.0779114 1.0842e-19 0 
0.0952715 -6.89167e-18 0 
0.112978 -5.77338e-18 0 
0.130931 -1.0842e-17 0 
0.149051 -7.6504e-18 0 
0.167275 -1.37304e-18 0 
0.185556 -4.38424e-18 0 
0.203863 -6.12574e-18 0 
0.222174 -1.64392e-17 0 
0.240478 -1.16416e-17 0 
0.258767 -2.27005e-18 0 
0.277039 1.64121e-17 0 
0.295295 9.17675e-18 0 
0.313538 5.74737e-17 0 
0.331772 6.10135e-17 0 
0.35 8.99075e-17 0 
0 0 0 
0.0141177 -0.00109125 0 
0.0290347 -0.00213576 0 
0.0447092 -0.00309059 0 
0.0610601 -0.00392463 0 
0.0779802 -0.00462287 0 
0.0953526 -0.00518561 0 
0.113065 -0.00562426 0 
0.13102 -0.00595629 0 
0.149137 -0.00620108 0 
0.167354 -0.00637712 0 
0.185627 -0.00650063 0 
0.203925 -0.00658507 0 
0.222227 -0.00664114 0 
0.240522 -0.00667715 0 
0.258802 -0.00669934 0 
0.277066 -0.00671235 0 
0.295315 -0.00671951 0 
0.313551 -0.00672314 0 
0.331778 -0.00672475 0 
0.35 -0.0067252 0 
0 0 0 
0.0141298 -0.00220623 0 
0.0290838 -0.00431535 0 
0.0448122 -0.00623694 0 
0.0612214 -0.00790743 0 
0.0781923 -0.00929862 0 
0.0956006 -0.0104144 0 
0.113332 -0.0112805 0 
0.131288 -0.0119342 0 
0.149394 -0.0124151 0 
0.167592 -0.0127605 0 
0.18584 -0.0130029 0 
0.20411 -0.0131686 0 
0.222384 -0.0132788 0 
0.240651 -0.0133497 0 
0.258906 -0.0133935 0 
0.277147 -0.0134193 0 
0.295374 -0.0134336 0 
0.313589 -0.0134409 0 
0.331797 -0.0134442 0 
0.35 -0.0134451 0 
0 0 0 
0.0141536 -0.00337155 0 
0.0291758 -0.00658732 0 
0.0450006 -0.00949917 0 
0.0615104 -0.012009 0 
0.0785653 -0.0140804 0 
0.0960292 -0.015728 0 
0.113785 -0.0169988 0 
0.13174 -0.0179532 0 
0.149823 -0.0186532 0 
0.167984 -0.0191553 0 
0.186188 -0.0195075 0 
0.204411 -0.0197486 0 
0.222638 -0.0199092 0 
0.24086 -0.020013 0 
0.259074 -0.0200775 0 
0.277276 -0.0201157 0 
0.295467 -0.0201372 0 
0.31365 -0.0201484 0 
0.331827 -0.0201535 0 
0.35 -0.0201549 0 
0 0 0 
0.0141963 -0.00462063 0 
0.0293298 -0.00901084 0 
0.0453042 -0.0129466 0 
0.0619611 -0.0162945 0 
0.07913 -0.019021 0 
0.0966613 -0.0211652 0 
0.114439 -0.0228046 0 
0.132378 -0.0240286 0 
0.15042 -0.0249233 0 
0.168524 -0.0255642 0 
0.186662 -0.0260138 0 
0.204817 -0.0263223 0 
0.222979 -0.0265287 0 
0.241139 -0.0266627 0 
0.259296 -0.0267467 0 
0.277446 -0.0267971 0 
0.295591 -0.0268259 0 
0.31373 -0.0268411 0 
0.331866 -0.0268483 0 
0.35 -0.0268503 0 
0 0 0 
0.014272 -0.00600028 0 
0.0295821 -0.0116646 0 
0.0457764 -0.016663 0 
0.0626298 -0.0208337 0 
0.0799327 -0.0241703 0 
0.0975274 -0.0267575 0 
0.115308 -0.0287161 0 
0.133206 -0.0301694 0 
0.151178 -0.0312285 0 
0.169197 -0.0319867 0 
0.187245 -0.0325195 0 
0.205312 -0.0328864 0 
0.223389 -0.0331332 0 
0.241473 -0.0332949 0 
0.259559 -0.0333974 0 
0.277647 -0.0334599 0 
0.295736 -0.0334963 0 
0.313824 -0.0335161 0 
0.331912 -0.0335256 0 
0.35 -0.0335284 0 
0 0 0 
0.0144096 -0.00758385 0 
0.0300037 -0.0146608 0 
0.046511 -0.0207513 0 
0.0636031 -0.0256983 0 
0.0810356 -0.0295696 0 
0.098662 -0.0325251 0 
0.116403 -0.0347406 0 
0.134216 -0.0363761 0 
0.15208 -0.037566 0 
0.169982 -0.0384188 0 
0.187914 -0.0390202 0 
0.20587 -0.0394367 0 
0.223847 -0.0397193 0 
0.241841 -0.0399064 0 
0.259848 -0.0400268 0 
0.277867 -0.0401017 0 
0.295893 -0.0401464 0 
0.313925 -0.0401714 0 
0.331962 -0.0401838 0 
0.35 -0.0401875 0 
0 0 0 
0.0146753 -0.00950123 0 
0.0307407 -0.0181677 0 
0.0476707 -0.025332 0 
0.0650059 -0.0309494 0 
0.082511 -0.0352405 0 
0.100092 -0.0384692 0 
0.11772 -0.0408714 0 
0.135387 -0.0426398 0 
0.153094 -0.0439275 0 
0.170842 -0.0448536 0 
0.188631 -0.0455107 0 
0.206459 -0.0459696 0 
0.224323 -0.0462843 0 
0.242219 -0.0464956 0 
0.260142 -0.046634 0 
0.278087 -0.046722 0 
0.29605 -0.0467759 0 
0.314026 -0.0468071 0 
0.332011 -0.046823 0 
0.35 -0.0468278 0 
0 0 0 
0.0152461 -0.0120153 0 
0.0321153 -0.0224312 0 
0.0495276 -0.0305184 0 
0.0669934 -0.0366133 0 
0.0844182 -0.0411715 0 
0.101818 -0.0445675 0 
0.119225 -0.0470862 0 
0.136669 -0.0489427 0 
0.154166 -0.0503 0 
0.171726 -0.0512827 0 
0.18935 -0.0519859 0 
0.207037 -0.0524823 0 
0.224781 -0.0528273 0 
0.242577 -0.0530627 0 
0.260416 -0.0532201 0 
0.27829 -0.0533225 0 
0.296194 -0.053387 0 
0.314118 -0.0534253 0 
0.332055 -0.0534454 0 
0.35 -0.0534516 0 
0 0 0 
0.0167406 -0.0157225 0 
0.0348495 -0.0277298 0 
0.0524544 -0.0363538 0 
0.0696868 -0.0426496 0 
0.0867495 -0.0473069 0 
0.103774 -0.0507716 0 
0.120836 -0.0533495 0 
0.137977 -0.0552608 0 
0.155217 -0.0566692 0 
0.172561 -0.0576983 0 
0.190009 -0.0584429 0 
0.207551 -0.0589751 0 
0.225179 -0.0593506 0 
0.24288 -0.0596112 0 
0.260643 -0.059789 0 
0.278456 -0.0599074 0 
0.296309 -0.0599838 0 
0.31419 -0.0600305 0 
0.33209 -0.0600554 0 
0.35 -0.0600632 0 
0 0 0 
0.0222879 -0.0218796 0 
0.0399869 -0.0342331 0 
0.0566377 -0.0427269 0 
0.0730003 -0.0489241 0 
0.0893467 -0.0535436 0 
0.105796 -0.0570124 0 
0.1224 -0.0596186 0 
0.13918 -0.0615703 0 
0.156136 -0.0630234 0 
0.173259 -0.0640971 0 
0.190534 -0.0648832 0 
0.207943 -0.0654527 0 
0.225468 -0.0658603 0 
0.243091 -0.0661481 0 
0.260795 -0.066348 0 
0.278563 -0.066484 0 
0.29638 -0.0665736 0 
0.314234 -0.0666294 0 
0.332111 -0.0666597 0 
0.35 -0.0666693 0 
CELL_DATA 400
TENSORS sigma float 
395.181 143.869 0 143.869 71.9847 0 0 0 101.368 
363.946 75.3423 0 75.3423 23.7597 0 0 0 87.3611 
346.008 47.5887 0 47.5887 11.2764 0 0 0 81.7681 
337.877 32.6529 0 32.6529 6.29306 0 0 0 79.2587 
334.99 23.2532 0 23.2532 3.81773 0 0 0 78.1584 
334.897 16.8226 0 16.8226 2.43279 0 0 0 77.7749 
336.283 12.2212 0 12.2212 1.59847 0 0 0 77.7714 
338.403 8.85138 0 8.85138 1.06923 0 0 0 77.9666 
340.816 6.35847 0 6.35847 0.720253 0 0 0 78.2571 
343.259 4.51152 0 4.51152 0.483127 0 0 0 78.5824 
345.578 3.14934 0 3.14934 0.318274 0 0 0 78.9069 
347.684 2.15396 0 2.15396 0.201752 0 0 0 79.2106 
349.537 1.43645 0 1.43645 0.118517 0 0 0 79.4826 
351.121 0.928572 0 0.928572 0.0587753 0 0 0 79.7182 
352.44 0.57756 0 0.57756 0.0159481 0 0 0 79.9161 
353.504 0.342414 0 0.342414 -0.0144945 0 0 0 80.0769 
354.33 0.191153 0 0.191153 -0.0357195 0 0 0 80.2022 
354.932 0.0986252 0 0.0986252 -0.0499371 0 0 0 80.2941 
355.326 0.0446699 0 0.0446699 -0.0586454 0 0 0 80.3543 
355.52 0.0125376 0 0.0125376 -0.062776 0 0 0 80.384 
337.801 106.968 0 106.968 103.891 0 0 0 108.11 
354.544 83.1113 0 83.1113 49.2557 0 0 0 94.6134 
352.574 55.9435 0 55.9435 25.5793 0 0 0 87.8106 
348.335 37.6708 0 37.6708 14.8118 0 0 0 84.0822 
345.476 25.674 0 25.674 9.28138 0 0 0 81.9627 
344.232 17.581 0 17.581 6.12428 0 0 0 80.7583 
344.196 11.9874 0 11.9874 4.1722 0 0 0 80.1001 
344.941 8.06665 0 8.06665 2.89198 0 0 0 79.7747 
346.131 5.30619 0 5.30619 2.01582 0 0 0 79.6522 
347.53 3.37005 0 3.37005 1.39815 0 0 0 79.6509 
348.976 2.02763 0 2.02763 0.954273 0 0 0 79.7184 
350.368 1.1153 0 1.1153 0.631844 0 0 0 79.8208 
351.642 0.514419 0 0.514419 0.396698 0 0 0 79.9364 
352.764 0.137931 0 0.137931 0.225487 0 0 0 80.0515 
353.719 -0.0783469 0 -0.0783469 0.101682 0 0 0 80.1577 
354.504 -0.181741 0 -0.181741 0.0133152 0 0 0 80.2498 
355.121 -0.207112 0 -0.207112 -0.0483449 0 0 0 80.3252 
355.575 -0.180184 0 -0.180184 -0.0895971 0 0 0 80.3823 
355.874 -0.120183 0 -0.120183 -0.114813 0 0 0 80.4206 
356.022 -0.0419919 0 -0.0419919 -0.126753 0 0 0 80.4398 
319.728 83.4707 0 83.4707 106.077 0 0 0 108.238 
339.116 73.2917 0 73.2917 66.6504 0 0 0 99.2247 
348.03 55.5488 0 55.5488 40.1484 0 0 0 92.5739 
350.277 39.459 0 39.459 24.8772 0 0 0 88.1847 
350.282 27.2513 0 27.2513 16.0492 0 0 0 85.3296 
349.951 18.4612 0 18.4612 10.7065 0 0 0 83.4692 
349.882 12.2373 0 12.2373 7.30361 0 0 0 82.2582 
350.164 7.86856 0 7.86856 5.03859 0 0 0 81.4772 
350.728 4.8321 0 4.8321 3.47939 0 0 0 80.984 
351.467 2.75271 0 2.75271 2.38068 0 0 0 80.6838 
352.287 1.36045 0 1.36045 1.59526 0 0 0 80.5122 
353.113 0.459847 0 0.459847 1.02987 0 0 0 80.4251 
353.897 -0.0913594 0 -0.0913594 0.622507 0 0 0 80.3918 
354.605 -0.396738 0 -0.396738 0.330185 0 0 0 80.391 
355.219 -0.531429 0 -0.531429 0.122234 0 0 0 80.4082 
355.731 -0.549576 0 -0.549576 -0.02362 0 0 0 80.4332 
356.137 -0.489865 0 -0.489865 -0.12361 0 0 0 80.4594 
356.44 -0.379757 0 -0.379757 -0.189406 0 0 0 80.4822 
356.64 -0.238807 0 -0.238807 -0.229074 0 0 0 80.4988 
356.739 -0.0813309 0 -0.0813309 -0.247684 0 0 0 80.5074 
312.065 66.3869 0 66.3869 105.013 0 0 0 108.049 
329.396 61.2101 0 61.2101 75.0642 0 0 0 101.503 
341.486 50.0495 0 50.0495 50.8334 0 0 0 95.7749 
348.09 37.7198 0 37.7198 34.0109 0 0 0 91.3686 
351.24 26.985 0 26.985 22.9332 0 0 0 88.1469 
352.693 18.5678 0 18.5678 15.6502 0 0 0 85.837 
353.44 12.3045 0 12.3045 10.7735 0 0 0 84.1947 
353.943 7.79017 0 7.79017 7.43428 0 0 0 83.0338 
354.387 4.61816 0 4.61816 5.10286 0 0 0 82.219 
354.828 2.4472 0 2.4472 3.45243 0 0 0 81.6529 
355.272 1.00907 0 1.00907 2.27493 0 0 0 81.2649 
355.704 0.0993446 0 0.0993446 1.43291 0 0 0 81.0038 
356.11 -0.435024 0 -0.435024 0.832269 0 0 0 80.8323 
356.476 -0.706964 0 -0.706964 0.406654 0 0 0 80.7232 
356.794 -0.798685 0 -0.798685 0.108261 0 0 0 80.6565 
357.06 -0.769179 0 -0.769179 -0.0977187 0 0 0 80.618 
357.272 -0.660144 0 -0.660144 -0.236617 0 0 0 80.5973 
357.429 -0.500669 0 -0.500669 -0.32658 0 0 0 80.5872 
357.534 -0.310947 0 -0.310947 -0.380089 0 0 0 80.5829 
357.586 -0.105298 0 -0.105298 -0.404962 0 0 0 80.5815 
308.326 52.8002 0 52.8002 103.895 0 0 0 108.005 
323.569 49.7936 0 49.7936 79.4505 0 0 0 102.792 
336.08 42.5976 0 42.5976 57.9727 0 0 0 97.8753 
344.793 33.6281 0 33.6281 41.2421 0 0 0 93.7053 
350.24 24.9536 0 24.9536 29.0386 0 0 0 90.3773 
353.461 17.5994 0 17.5994 20.3691 0 0 0 87.8078 
355.333 11.8238 0 11.8238 14.2417 0 0 0 85.861 
356.432 7.51075 0 7.51075 9.89504 0 0 0 84.404 
357.098 4.41282 0 4.41282 6.79468 0 0 0 83.3241 
357.52 2.26703 0 2.26703 4.57496 0 0 0 82.5308 
357.802 0.839943 0 0.839943 2.98478 0 0 0 81.9536 
357.999 -0.0593862 0 -0.0593862 1.84885 0 0 0 81.5381 
358.141 -0.580093 0 -0.580093 1.04244 0 0 0 81.2425 
358.247 -0.835047 0 -0.835047 0.475383 0 0 0 81.0352 
358.325 -0.907578 0 -0.907578 0.0817237 0 0 0 80.8921 
358.383 -0.857863 0 -0.857863 -0.186913 0 0 0 80.7953 
358.425 -0.728468 0 -0.728468 -0.365819 0 0 0 80.7314 
358.454 -0.548956 0 -0.548956 -0.480264 0 0 0 80.6909 
358.472 -0.339667 0 -0.339667 -0.547596 0 0 0 80.6673 
358.481 -0.114825 0 -0.114825 -0.578656 0 0 0 80.6565 
306.35 41.2795 0 41.2795 103.051 0 0 0 108.052 
320.004 39.3865 0 39.3865 81.9694 0 0 0 103.613 
332.142 34.6289 0 34.6289 62.7031 0 0 0 99.2808 
341.702 28.2537 0 28.2537 46.6218 0 0 0 95.3838 
348.559 21.6161 0 21.6161 34.0114 0 0 0 92.0768 
353.164 15.6257 0 15.6257 24.4784 0 0 0 89.3779 
356.111 10.6886 0 10.6886 17.4092 0 0 0 87.2325 
357.921 6.86933 0 6.86933 12.2181 0 0 0 85.5587 
358.982 4.05721 0 4.05721 8.42814 0 0 0 84.2713 
359.56 2.07642 0 2.07642 5.67511 0 0 0 83.293 
359.834 0.744957 0 0.744957 3.68729 0 0 0 82.5576 
359.921 -0.0989052 0 -0.0989052 2.26307 0 0 0 82.0105 
359.9 -0.58789 0 -0.58789 1.25271 0 0 0 81.608 
359.821 -0.825579 0 -0.825579 0.544669 0 0 0 81.3153 
359.717 -0.88991 0 -0.88991 0.0558737 0 0 0 81.1052 
359.609 -0.83782 0 -0.83782 -0.275285 0 0 0 80.957 
359.511 -0.709835 0 -0.709835 -0.494003 0 0 0 80.8549 
359.433 -0.534177 0 -0.534177 -0.632712 0 0 0 80.7875 
359.378 -0.330254 0 -0.330254 -0.713684 0 0 0 80.7468 
359.349 -0.1116 0 -0.1116 -0.750828 0 0 0 80.7277 
305.259 31.0571 0 31.0571 102.457 0 0 0 108.129 
317.783 29.828 0 29.828 83.5118 0 0 0 104.166 
329.406 26.6723 0 26.6723 65.8466 0 0 0 100.233 
339.227 22.2576 0 22.2576 50.4751 0 0 0 96.5687 
346.874 17.4275 0 17.4275 37.8172 0 0 0 93.3277 
352.437 12.8614 0 12.8614 27.797 0 0 0 90.575 
356.253 8.94955 0 8.94955 20.0756 0 0 0 88.3076 
358.724 5.83 0 5.83 14.2355 0 0 0 86.483 
360.215 3.47983 0 3.47983 9.88002 0 0 0 85.0418 
361.024 1.79623 0 1.79623 6.67018 0 0 0 83.9205 
361.378 0.650501 0 0.650501 4.33156 0 0 0 83.0595 
361.442 -0.0822789 0 -0.0822789 2.6479 0 0 0 82.4062 
361.333 -0.509951 0 -0.509951 1.45146 0 0 0 81.9161 
361.134 -0.719349 0 -0.719349 0.613619 0 0 0 81.5528 
360.9 -0.777132 0 -0.777132 0.0367039 0 0 0 81.287 
360.668 -0.732625 0 -0.732625 -0.352593 0 0 0 81.0959 
360.462 -0.621234 0 -0.621234 -0.608423 0 0 0 80.9618 