# vtk DataFile Version 2.0
Generated by inSilico's base::io::vtk::LegacyWriter
ASCII
DATASET UNSTRUCTURED_GRID
POINTS 441 float
0 0 0 
0.05 0 0 
0.1 0 0 
0.15 0 0 
0.2 0 0 
0.25 0 0 
0.3 0 0 
0.35 0 0 
0.4 0 0 
0.45 0 0 
0.5 0 0 
0.55 0 0 
0.6 0 0 
0.65 0 0 
0.7 0 0 
0.75 0 0 
0.8 0 0 
0.85 0 0 
0.9 0 0 
0.95 0 0 
1 0 0 
0 0.05 0 
0.05 0.05 0 
0.1 0.05 0 
0.15 0.05 0 
0.2 0.05 0 
0.25 0.05 0 
0.3 0.05 0 
0.35 0.05 0 
0.4 0.05 0 
0.45 0.05 0 
0.5 0.05 0 
0.55 0.05 0 
0.6 0.05 0 
0.65 0.05 0 
0.7 0.05 0 
0.75 0.05 0 
0.8 0.05 0 
0.85 0.05 0 
0.9 0.05 0 
0.95 0.05 0 
1 0.05 0 
0 0.1 0 
0.05 0.1 0 
0.1 0.1 0 
0.15 0.1 0 
0.2 0.1 0 
0.25 0.1 0 
0.3 0.1 0 
0.35 0.1 0 
0.4 0.1 0 
0.45 0.1 0 
0.5 0.1 0 
0.55 0.1 0 
0.6 0.1 0 
0.65 0.1 0 
0.7 0.1 0 
0.75 0.1 0 
0.8 0.1 0 
0.85 0.1 0 
0.9 0.1 0 
0.95 0.1 0 
1 0.1 0 
0 0.15 0 
0.05 0.15 0 
0.1 0.15 0 
0.15 0.15 0 
0.2 0.15 0 
0.25 0.15 0 
0.3 0.15 0 
0.35 0.15 0 
0.4 0.15 0 
0.45 0.15 0 
0.5 0.15 0 
0.55 0.15 0 
0.6 0.15 0 
0.65 0.15 0 
0.7 0.15 0 
0.75 0.15 0 
0.8 0.15 0 
0.85 0.15 0 
0.9 0.15 0 
0.95 0.15 0 
1 0.15 0 
0 0.2 0 
0.05 0.2 0 
0.1 0.2 0 
0.15 0.2 0 
0.2 0.2 0 
0.25 0.2 0 
0.3 0.2 0 
0.35 0.2 0 
0.4 0.2 0 
0.45 0.2 0 
0.5 0.2 0 
0.55 0.2 0 
0.6 0.2 0 
0.65 0.2 0 
0.7 0.2 0 
0.75 0.2 0 
0.8 0.2 0 
0.85 0.2 0 
0.9 0.2 0 
0.95 0.2 0 
1 0.2 0 
0 0.25 0 
0.05 0.25 0 
0.1 0.25 0 
0.15 0.25 0 
0.2 0.25 0 
0.25 0.25 0 
0.3 0.25 0 
0.35 0.25 0 
0.4 0.25 0 
0.45 0.25 0 
0.5 0.25 0 
0.55 0.25 0 
0.6 0.25 0 
0.65 0.25 0 
0.7 0.25 0 
0.75 0.25 0 
0.8 0.25 0 
0.85 0.25 0 
0.9 0.25 0 
0.95 0.25 0 
1 0.25 0 
0 0.3 0 
0.05 0.3 0 
0.1 0.3 0 
0.15 0.3 0 
0.2 0.3 0 
0.25 0.3 0 
0.3 0.3 0 
0.35 0.3 0 
0.4 0.3 0 
0.45 0.3 0 
0.5 0.3 0 
0.55 0.3 0 
0.6 0.3 0 
0.65 0.3 0 
0.7 0.3 0 
0.75 0.3 0 
0.8 0.3 0 
0.85 0.3 0 
0.9 0.3 0 
0.95 0.3 0 
1 0.3 0 
0 0.35 0 
0.05 0.35 0 
0.1 0.35 0 
0.15 0.35 0 
0.2 0.35 0 
0.25 0.35 0 
0.3 0.35 0 
0.35 0.35 0 
0.4 0.35 0 
0.45 0.35 0 
0.5 0.35 0 
0.55 0.35 0 
0.6 0.35 0 
0.65 0.35 0 
0.7 0.35 0 
0.75 0.35 0 
0.8 0.35 0 
0.85 0.35 0 
0.9 0.35 0 
0.95 0.35 0 
1 0.35 0 
0 0.4 0 
0.05 0.4 0 
0.1 0.4 0 
0.15 0.4 0 
0.2 0.4 0 
0.25 0.4 0 
0.3 0.4 0 
0.35 0.4 0 
0.4 0.4 0 
0.45 0.4 0 
0.5 0.4 0 
0.55 0.4 0 
0.6 0.4 0 
0.65 0.4 0 
0.7 0.4 0 
0.75 0.4 0 
0.8 0.4 0 
0.85 0.4 0 
0.9 0.4 0 
0.95 0.4 0 
1 0.4 0 
0 0.45 0 
0.05 0.45 0 
0.1 0.45 0 
0.15 0.45 0 
0.2 0.45 0 
0.25 0.45 0 
0.3 0.45 0 
0.35 0.45 0 
0.4 0.45 0 
0.45 0.45 0 
0.5 0.45 0 
0.55 0.45 0 
0.6 0.45 0 
0.65 0.45 0 
0.7 0.45 0 
0.75 0.45 0 
0.8 0.45 0 
0.85 0.45 0 
0.9 0.45 0 
0.95 0.45 0 
1 0.45 0 
0 0.5 0 
0.05 0.5 0 
0.1 0.5 0 
0.15 0.5 0 
0.2 0.5 0 
0.25 0.5 0 
0.3 0.5 0 
0.35 0.5 0 
0.4 0.5 0 
0.45 0.5 0 
0.5 0.5 0 
0.55 0.5 0 
0.6 0.5 0 
0.65 0.5 0 
0.7 0.5 0 
0.75 0.5 0 
0.8 0.5 0 
0.85 0.5 0 
0.9 0.5 0 
0.95 0.5 0 
1 0.5 0 
0 0.55 0 
0.05 0.55 0 
0.1 0.55 0 
0.15 0.55 0 
0.2 0.55 0 
0.25 0.55 0 
0.3 0.55 0 
0.35 0.55 0 
0.4 0.55 0 
0.45 0.55 0 
0.5 0.55 0 
0.55 0.55 0 
0.6 0.55 0 
0.65 0.55 0 
0.7 0.55 0 
0.75 0.55 0 
0.8 0.55 0 
0.85 0.55 0 
0.9 0.55 0 
0.95 0.55 0 
1 0.55 0 
0 0.6 0 
0.05 0.6 0 
0.1 0.6 0 
0.15 0.6 0 
0.2 0.6 0 
0.25 0.6 0 
0.3 0.6 0 
0.35 0.6 0 
0.4 0.6 0 
0.45 0.6 0 
0.5 0.6 0 
0.55 0.6 0 
0.6 0.6 0 
0.65 0.6 0 
0.7 0.6 0 
0.75 0.6 0 
0.8 0.6 0 
0.85 0.6 0 
0.9 0.6 0 
0.95 0.6 0 
1 0.6 0 
0 0.65 0 
0.05 0.65 0 
0.1 0.65 0 
0.15 0.65 0 
0.2 0.65 0 
0.25 0.65 0 
0.3 0.65 0 
0.35 0.65 0 
0.4 0.65 0 
0.45 0.65 0 
0.5 0.65 0 
0.55 0.65 0 
0.6 0.65 0 
0.65 0.65 0 
0.7 0.65 0 
0.75 0.65 0 
0.8 0.65 0 
0.85 0.65 0 
0.9 0.65 0 
0.95 0.65 0 
1 0.65 0 
0 0.7 0 
0.05 0.7 0 
0.1 0.7 0 
0.15 0.7 0 
0.2 0.7 0 
0.25 0.7 0 
0.3 0.7 0 
0.35 0.7 0 
0.4 0.7 0 
0.45 0.7 0 
0.5 0.7 0 
0.55 0.7 0 
0.6 0.7 0 
0.65 0.7 0 
0.7 0.7 0 
0.75 0.7 0 
0.8 0.7 0 
0.85 0.7 0 
0.9 0.7 0 
0.95 0.7 0 
1 0.7 0 
0 0.75 0 
0.05 0.75 0 
0.1 0.75 0 
0.15 0.75 0 
0.2 0.75 0 
0.25 0.75 0 
0.3 0.75 0 
0.35 0.75 0 
0.4 0.75 0 
0.45 0.75 0 
0.5 0.75 0 
0.55 0.75 0 
0.6 0.75 0 
0.65 0.75 0 
0.7 0.75 0 
0.75 0.75 0 
0.8 0.75 0 
0.85 0.75 0 
0.9 0.75 0 
0.95 0.75 0 
1 0.75 0 
0 0.8 0 
0.05 0.8 0 
0.1 0.8 0 
0.15 0.8 0 
0.2 0.8 0 
0.25 0.8 0 
0.3 0.8 0 
0.35 0.8 0 
0.4 0.8 0 
0.45 0.8 0 
0.5 0.8 0 
0.55 0.8 0 
0.6 0.8 0 
0.65 0.8 0 
0.7 0.8 0 
0.75 0.8 0 
0.8 0.8 0 
0.85 0.8 0 
0.9 0.8 0 
0.95 0.8 0 
1 0.8 0 
0 0.85 0 
0.05 0.85 0 
0.1 0.85 0 
0.15 0.85 0 
0.2 0.85 0 
0.25 0.85 0 
0.3 0.85 0 
0.35 0.85 0 
0.4 0.85 0 
0.45 0.85 0 
0.5 0.85 0 
0.55 0.85 0 
0.6 0.85 0 
0.65 0.85 0 
0.7 0.85 0 
0.75 0.85 0 
0.8 0.85 0 
0.85 0.85 0 
0.9 0.85 0 
0.95 0.85 0 
1 0.85 0 
0 0.9 0 
0.05 0.9 0 
0.1 0.9 0 
0.15 0.9 0 
0.2 0.9 0 
0.25 0.9 0 
0.3 0.9 0 
0.35 0.9 0 
0.4 0.9 0 
0.45 0.9 0 
0.5 0.9 0 
0.55 0.9 0 
0.6 0.9 0 
0.65 0.9 0 
0.7 0.9 0 
0.75 0.9 0 
0.8 0.9 0 
0.85 0.9 0 
0.9 0.9 0 
0.95 0.9 0 
1 0.9 0 
0 0.95 0 
0.05 0.95 0 
0.1 0.95 0 
0.15 0.95 0 
0.2 0.95 0 
0.25 0.95 0 
0.3 0.95 0 
0.35 0.95 0 
0.4 0.95 0 
0.45 0.95 0 
0.5 0.95 0 
0.55 0.95 0 
0.6 0.95 0 
0.65 0.95 0 
0.7 0.95 0 
0.75 0.95 0 
0.8 0.95 0 
0.85 0.95 0 
0.9 0.95 0 
0.95 0.95 0 
1 0.95 0 
0 1 0 
0.05 1 0 
0.1 1 0 
0.15 1 0 
0.2 1 0 
0.25 1 0 
0.3 1 0 
0.35 1 0 
0.4 1 0 
0.45 1 0 
0.5 1 0 
0.55 1 0 
0.6 1 0 
0.65 1 0 
0.7 1 0 
0.75 1 0 
0.8 1 0 
0.85 1 0 
0.9 1 0 
0.95 1 0 
1 1 0 
CELLS 400 2000
4 0 1 22 21 
4 1 2 23 22 
4 2 3 24 23 
4 3 4 25 24 
4 4 5 26 25 
4 5 6 27 26 
4 6 7 28 27 
4 7 8 29 28 
4 8 9 30 29 
4 9 10 31 30 
4 10 11 32 31 
4 11 12 33 32 
4 12 13 34 33 
4 13 14 35 34 
4 14 15 36 35 
4 15 16 37 36 
4 16 17 38 37 
4 17 18 39 38 
4 18 19 40 39 
4 19 20 41 40 
4 21 22 43 42 
4 22 23 44 43 
4 23 24 45 44 
4 24 25 46 45 
4 25 26 47 46 
4 26 27 48 47 
4 27 28 49 48 
4 28 29 50 49 
4 29 30 51 50 
4 30 31 52 51 
4 31 32 53 52 
4 32 33 54 53 
4 33 34 55 54 
4 34 35 56 55 
4 35 36 57 56 
4 36 37 58 57 
4 37 38 59 58 
4 38 39 60 59 
4 39 40 61 60 
4 40 41 62 61 
4 42 43 64 63 
4 43 44 65 64 
4 44 45 66 65 
4 45 46 67 66 
4 46 47 68 67 
4 47 48 69 68 
4 48 49 70 69 
4 49 50 71 70 
4 50 51 72 71 
4 51 52 73 72 
4 52 53 74 73 
4 53 54 75 74 
4 54 55 76 75 
4 55 56 77 76 
4 56 57 78 77 
4 57 58 79 78 
4 58 59 80 79 
4 59 60 81 80 
4 60 61 82 81 
4 61 62 83 82 
4 63 64 85 84 
4 64 65 86 85 
4 65 66 87 86 
4 66 67 88 87 
4 67 68 89 88 
4 68 69 90 89 
4 69 70 91 90 
4 70 71 92 91 
4 71 72 93 92 
4 72 73 94 93 
4 73 74 95 94 
4 74 75 96 95 
4 75 76 97 96 
4 76 77 98 97 
4 77 78 99 98 
4 78 79 100 99 
4 79 80 101 100 
4 80 81 102 101 
4 81 82 103 102 
4 82 83 104 103 
4 84 85 106 105 
4 85 86 107 106 
4 86 87 108 107 
4 87 88 109 108 
4 88 89 110 109 
4 89 90 111 110 
4 90 91 112 111 
4 91 92 113 112 
4 92 93 114 113 
4 93 94 115 114 
4 94 95 116 115 
4 95 96 117 116 
4 96 97 118 117 
4 97 98 119 118 
4 98 99 120 119 
4 99 100 121 120 
4 100 101 122 121 
4 101 102 123 122 
4 102 103 124 123 
4 103 104 125 124 
4 105 106 127 126 
4 106 107 128 127 
4 107 108 129 128 
4 108 109 130 129 
4 109 110 131 130 
4 110 111 132 131 
4 111 112 133 132 
4 112 113 134 133 
4 113 114 135 134 
4 114 115 136 135 
4 115 116 137 136 
4 116 117 138 137 
4 117 118 139 138 
4 118 119 140 139 
4 119 120 141 140 
4 120 121 142 141 
4 121 122 143 142 
4 122 123 144 143 
4 123 124 145 144 
4 124 125 146 145 
4 126 127 148 147 
4 127 128 149 148 
4 128 129 150 149 
4 129 130 151 150 
4 130 131 152 151 
4 131 132 153 152 
4 132 133 154 153 
4 133 134 155 154 
4 134 135 156 155 
4 135 136 157 156 
4 136 137 158 157 
4 137 138 159 158 
4 138 139 160 159 
4 139 140 161 160 
4 140 141 162 161 
4 141 142 163 162 
4 142 143 164 163 
4 143 144 165 164 
4 144 145 166 165 
4 145 146 167 166 
4 147 148 169 168 
4 148 149 170 169 
4 149 150 171 170 
4 150 151 172 171 
4 151 152 173 172 
4 152 153 174 173 
4 153 154 175 174 
4 154 155 176 175 
4 155 156 177 176 
4 156 157 178 177 
4 157 158 179 178 
4 158 159 180 179 
4 159 160 181 180 
4 160 161 182 181 
4 161 162 183 182 
4 162 163 184 183 
4 163 164 185 184 
4 164 165 186 185 
4 165 166 187 186 
4 166 167 188 187 
4 168 169 190 189 
4 169 170 191 190 
4 170 171 192 191 
4 171 172 193 192 
4 172 173 194 193 
4 173 174 195 194 
4 174 175 196 195 
4 175 176 197 196 
4 176 177 198 197 
4 177 178 199 198 
4 178 179 200 199 
4 179 180 201 200 
4 180 181 202 201 
4 181 182 203 202 
4 182 183 204 203 
4 183 184 205 204 
4 184 185 206 205 
4 185 186 207 206 
4 186 187 208 207 
4 187 188 209 208 
4 189 190 211 210 
4 190 191 212 211 
4 191 192 213 212 
4 192 193 214 213 
4 193 194 215 214 
4 194 195 216 215 
4 195 196 217 216 
4 196 197 218 217 
4 197 198 219 218 
4 198 199 220 219 
4 199 200 221 220 
4 200 201 222 221 
4 201 202 223 222 
4 202 203 224 223 
4 203 204 225 224 
4 204 205 226 225 
4 205 206 227 226 
4 206 207 228 227 
4 207 208 229 228 
4 208 209 230 229 
4 210 211 232 231 
4 211 212 233 232 
4 212 213 234 233 
4 213 214 235 234 
4 214 215 236 235 
4 215 216 237 236 
4 216 217 238 237 
4 217 218 239 238 
4 218 219 240 239 
4 219 220 241 240 
4 220 221 242 241 
4 221 222 243 242 
4 222 223 244 243 
4 223 224 245 244 
4 224 225 246 245 
4 225 226 247 246 
4 226 227 248 247 
4 227 228 249 248 
4 228 229 250 249 
4 229 230 251 250 
4 231 232 253 252 
4 232 233 254 253 
4 233 234 255 254 
4 234 235 256 255 
4 235 236 257 256 
4 236 237 258 257 
4 237 238 259 258 
4 238 239 260 259 
4 239 240 261 260 
4 240 241 262 261 
4 241 242 263 262 
4 242 243 264 263 
4 243 244 265 264 
4 244 245 266 265 
4 245 246 267 266 
4 246 247 268 267 
4 247 248 269 268 
4 248 249 270 269 
4 249 250 271 270 
4 250 251 272 271 
4 252 253 274 273 
4 253 254 275 274 
4 254 255 276 275 
4 255 256 277 276 
4 256 257 278 277 
4 257 258 279 278 
4 258 259 280 279 
4 259 260 281 280 
4 260 261 282 281 
4 261 262 283 282 
4 262 263 284 283 
4 263 264 285 284 
4 264 265 286 285 
4 265 266 287 286 
4 266 267 288 287 
4 267 268 289 288 
4 268 269 290 289 
4 269 270 291 290 
4 270 271 292 291 
4 271 272 293 292 
4 273 274 295 294 
4 274 275 296 295 
4 275 276 297 296 
4 276 277 298 297 
4 277 278 299 298 
4 278 279 300 299 
4 279 280 301 300 
4 280 281 302 301 
4 281 282 303 302 
4 282 283 304 303 
4 283 284 305 304 
4 284 285 306 305 
4 285 286 307 306 
4 286 287 308 307 
4 287 288 309 308 
4 288 289 310 309 
4 289 290 311 310 
4 290 291 312 311 
4 291 292 313 312 
4 292 293 314 313 
4 294 295 316 315 
4 295 296 317 316 
4 296 297 318 317 
4 297 298 319 318 
4 298 299 320 319 
4 299 300 321 320 
4 300 301 322 321 
4 301 302 323 322 
4 302 303 324 323 
4 303 304 325 324 
4 304 305 326 325 
4 305 306 327 326 
4 306 307 328 327 
4 307 308 329 328 
4 308 309 330 329 
4 309 310 331 330 
4 310 311 332 331 
4 311 312 333 332 
4 312 313 334 333 
4 313 314 335 334 
4 315 316 337 336 
4 316 317 338 337 
4 317 318 339 338 
4 318 319 340 339 
4 319 320 341 340 
4 320 321 342 341 
4 321 322 343 342 
4 322 323 344 343 
4 323 324 345 344 
4 324 325 346 345 
4 325 326 347 346 
4 326 327 348 347 
4 327 328 349 348 
4 328 329 350 349 
4 329 330 351 350 
4 330 331 352 351 
4 331 332 353 352 
4 332 333 354 353 
4 333 334 355 354 
4 334 335 356 355 
4 336 337 358 357 
4 337 338 359 358 
4 338 339 360 359 
4 339 340 361 360 
4 340 341 362 361 
4 341 342 363 362 
4 342 343 364 363 
4 343 344 365 364 
4 344 345 366 365 
4 345 346 367 366 
4 346 347 368 367 
4 347 348 369 368 
4 348 349 370 369 
4 349 350 371 370 
4 350 351 372 371 
4 351 352 373 372 
4 352 353 374 373 
4 353 354 375 374 
4 354 355 376 375 
4 355 356 377 376 
4 357 358 379 378 
4 358 359 380 379 
4 359 360 381 380 
4 360 361 382 381 
4 361 362 383 382 
4 362 363 384 383 
4 363 364 385 384 
4 364 365 386 385 
4 365 366 387 386 
4 366 367 388 387 
4 367 368 389 388 
4 368 369 390 389 
4 369 370 391 390 
4 370 371 392 391 
4 371 372 393 392 
4 372 373 394 393 
4 373 374 395 394 
4 374 375 396 395 
4 375 376 397 396 
4 376 377 398 397 
4 378 379 400 399 
4 379 380 401 400 
4 380 381 402 401 
4 381 382 403 402 
4 382 383 404 403 
4 383 384 405 404 
4 384 385 406 405 
4 385 386 407 406 
4 386 387 408 407 
4 387 388 409 408 
4 388 389 410 409 
4 389 390 411 410 
4 390 391 412 411 
4 391 392 413 412 
4 392 393 414 413 
4 393 394 415 414 
4 394 395 416 415 
4 395 396 417 416 
4 396 397 418 417 
4 397 398 419 418 
4 399 400 421 420 
4 400 401 422 421 
4 401 402 423 422 
4 402 403 424 423 
4 403 404 425 424 
4 404 405 426 425 
4 405 406 427 426 
4 406 407 428 427 
4 407 408 429 428 
4 408 409 430 429 
4 409 410 431 430 
4 410 411 432 431 
4 411 412 433 432 
4 412 413 434 433 
4 413 414 435 434 
4 414 415 436 435 
4 415 416 437 436 
4 416 417 438 437 
4 417 418 439 438 
4 418 419 440 439 
CELL_TYPES 400
9
9
9
9
9
9
9
9
9
9
9
9
9
9
9
9
9
9
9
9
9
9
9
9
9
9
9
9
9
9
9
9
9
9
9
9
9
9
9
9
9
9
9
9
9
9
9
9
9
9
9
9
9
9
9
9
9
9
9
9
9
9
9
9
9
9
9
9
9
9
9
9
9
9
9
9
9
9
9
9
9
9
9
9
9
9
9
9
9
9
9
9
9
9
9
9
9
9
9
9
9
9
9
9
9
9
9
9
9
9
9
9
9
9
9
9
9
9
9
9
9
9
9
9
9
9
9
9
9
9
9
9
9
9
9
9
9
9
9
9
9
9
9
9
9
9
9
9
9
9
9
9
9
9
9
9
9
9
9
9
9
9
9
9
9
9
9
9
9
9
9
9
9
9
9
9
9
9
9
9
9
9
9
9
9
9
9
9
9
9
9
9
9
9
9
9
9
9
9
9
9
9
9
9
9
9
9
9
9
9
9
9
9
9
9
9
9
9
9
9
9
9
9
9
9
9
9
9
9
9
9
9
9
9
9
9
9
9
9
9
9
9
9
9
9
9
9
9
9
9
9
9
9
9
9
9
9
9
9
9
9
9
9
9
9
9
9
9
9
9
9
9
9
9
9
9
9
9
9
9
9
9
9
9
9
9
9
9
9
9
9
9
9
9
9
9
9
9
9
9
9
9
9
9
9
9
9
9
9
9
9
9
9
9
9
9
9
9
9
9
9
9
9
9
9
9
9
9
9
9
9
9
9
9
9
9
9
9
9
9
9
9
9
9
9
9
9
9
9
9
9
9
9
9
9
9
9
9
9
9
9
9
9
9
9
9
9
9
9
9
9
9
9
9
9
9
9
9
9
9
9
9
9
9
9
9
9
9
9
9
9
9
9
9
9
9
9
9
9
9
POINT_DATA 441
VECTORS disp float 
0 0 0 
0.140436 0.110724 0 
0.285853 0.171456 0 
0.433159 0.210562 0 
0.581508 0.236656 0 
0.730584 0.254076 0 
0.880237 0.265569 0 
1.03037 0.273039 0 
1.1809 0.277829 0 
1.33176 0.280866 0 
1.48289 0.282776 0 
1.63422 0.283972 0 
1.7857 0.284718 0 
1.93731 0.285184 0 
2.089 0.285474 0 
2.24075 0.285654 0 
2.39256 0.285766 0 
2.54439 0.285835 0 
2.69625 0.285876 0 
2.84812 0.285897 0 
3 0.285904 0 
0 0 0 
0.135791 0.087098 0 
0.281743 0.144744 0 
0.430024 0.183054 0 
0.579206 0.20881 0 
0.728927 0.226022 0 
0.87906 0.237364 0 
1.02954 0.244719 0 
1.18033 0.249422 0 
1.33136 0.252394 0 
1.48261 0.254258 0 
1.63402 0.25542 0 
1.78557 0.256142 0 
1.93721 0.25659 0 
2.08893 0.256868 0 
2.24071 0.25704 0 
2.39252 0.257146 0 
2.54437 0.257211 0 
2.69624 0.257249 0 
2.84812 0.257269 0 
3 0.257275 0 
0 0 0 
0.136822 0.0680023 0 
0.280745 0.12047 0 
0.428378 0.157042 0 
0.57755 0.181955 0 
0.72748 0.198645 0 
0.877877 0.209624 0 
1.02861 0.216719 0 
1.17961 0.221235 0 
1.33083 0.224076 0 
1.48221 0.225849 0 
1.63373 0.226947 0 
1.78535 0.227626 0 
1.93705 0.228044 0 
2.08882 0.228301 0 
2.24063 0.228459 0 
2.39247 0.228555 0 
2.54433 0.228613 0 
2.69621 0.228647 0 
2.8481 0.228664 0 
3 0.22867 0 
0 0 0 
0.138294 0.0536979 0 
0.281178 0.0990306 0 
0.427835 0.132587 0 
0.576556 0.15601 0 
0.726376 0.171827 0 
0.876836 0.182237 0 
1.02771 0.188944 0 
1.17887 0.193194 0 
1.33023 0.195854 0 
1.48175 0.197504 0 
1.63338 0.198521 0 
1.78509 0.199144 0 
1.93686 0.199525 0 
2.08867 0.199757 0 
2.24052 0.199898 0 
2.39239 0.199982 0 
2.54428 0.200032 0 
2.69618 0.200061 0 
2.84809 0.200076 0 
3 0.200081 0 
0 0 0 
0.139474 0.0425516 0 
0.282063 0.0803067 0 
0.427925 0.109857 0 
0.576068 0.13111 0 
0.725603 0.145636 0 
0.875988 0.155221 0 
1.0269 0.161386 0 
1.17816 0.165278 0 
1.32965 0.167704 0 
1.48128 0.169202 0 
1.63301 0.17012 0 
1.7848 0.170679 0 
1.93664 0.171018 0 
2.08851 0.171223 0 
2.2404 0.171345 0 
2.39231 0.171418 0 
2.54422 0.17146 0 
2.69614 0.171484 0 
2.84807 0.171497 0 
3 0.1715 0 
0 0 0 
0.140345 0.0334015 0 
0.282967 0.0638834 0 
0.428302 0.0887983 0 
0.575911 0.107281 0 
0.725104 0.120099 0 
0.875334 0.128593 0 
1.02623 0.134051 0 
1.17754 0.137488 0 
1.32911 0.139622 0 
1.48083 0.140934 0 
1.63265 0.141736 0 
1.78452 0.142222 0 
1.93642 0.142515 0 
2.08835 0.14269 0 
2.24028 0.142794 0 
2.39222 0.142855 0 
2.54416 0.14289 0 
2.69611 0.14291 0 
2.84805 0.142919 0 
3 0.142922 0 
0 0 0 
0.140973 0.0255431 0 
0.283732 0.0492438 0 
0.428758 0.0692215 0 
0.575938 0.0844616 0 
0.724804 0.0951933 0 
0.874855 0.102341 0 
1.02569 0.106933 0 
1.17702 0.109818 0 
1.32864 0.111604 0 
1.48044 0.1127 0 
1.63232 0.113367 0 
1.78426 0.11377 0 
1.93622 0.114012 0 
2.08819 0.114156 0 
2.24016 0.114241 0 
2.39214 0.11429 0 
2.5441 0.114318 0 
2.69607 0.114334 0 
2.84804 0.114341 0 
3 0.114343 0 
0 0 0 
0.141414 0.0185356 0 
0.284319 0.0359082 0 
0.429175 0.0508584 0 
0.576046 0.0625208 0 
0.724639 0.07085 0 
0.874522 0.0764268 0 
1.02528 0.0800103 0 
1.17661 0.0822573 0 
1.32827 0.0836459 0 
1.48011 0.0844956 0 
1.63206 0.0850117 0 
1.78405 0.0853228 0 
1.93605 0.085509 0 
2.08806 0.0856194 0 
2.24007 0.0856841 0 
2.39206 0.0857215 0 
2.54405 0.0857427 0 
2.69604 0.0857542 0 
2.84802 0.0857599 0 
3 0.0857616 0 
0 0 0 
0.141705 0.0120814 0 
0.284728 0.0234729 0 
0.429497 0.0334057 0 
0.576164 0.0412778 0 
0.724556 0.0469635 0 
0.874305 0.0507878 0 
1.025 0.053246 0 
1.17632 0.0547855 0 
1.32799 0.0557353 0 
1.47987 0.0563157 0 
1.63186 0.0566677 0 
1.78388 0.0568795 0 
1.93592 0.057006 0 
2.08796 0.0570809 0 
2.23999 0.0571246 0 
2.39201 0.0571498 0 
2.54402 0.057164 0 
2.69602 0.0571717 0 
2.84801 0.0571754 0 
3 0.0571765 0 
0 0 0 
0.141871 0.00596167 0 
0.284969 0.0116011 0 
0.429698 0.016554 0 
0.576249 0.0205163 0 
0.72452 0.0233987 0 
0.874184 0.0253435 0 
1.02484 0.026594 0 
1.17614 0.0273765 0 
1.32783 0.0278588 0 
1.47973 0.0281533 0 
1.63173 0.0283317 0 
1.78378 0.028439 0 
1.93584 0.028503 0 
2.0879 0.0285408 0 
2.23994 0.0285629 0 
2.39197 0.0285756 0 
2.54399 0.0285827 0 
2.696 0.0285865 0 
2.848 0.0285884 0 
3 0.0285889 0 
0 0 0 
0.141925 3.37496e-15 0 
0.285048 8.31028e-15 0 
0.429765 1.24136e-14 0 
0.57628 1.72643e-14 0 
0.724511 1.90678e-14 0 
0.874145 2.16853e-14 0 
1.02479 2.3196e-14 0 
1.17608 2.5275e-14 0 
1.32777 2.57977e-14 0 
1.47968 2.45288e-14 0 
1.63169 2.12817e-14 0 
1.78375 1.96106e-14 0 
1.93582 1.7287e-14 0 
2.08788 1.49995e-14 0 
2.23993 1.30158e-14 0 
2.39196 1.42536e-14 0 
2.54398 1.73295e-14 0 
2.696 1.78281e-14 0 
2.848 1.936e-14 0 
3 1.67885e-14 0 
0 0 0 
0.141871 -0.00596167 0 
0.284969 -0.0116011 0 
0.429698 -0.016554 0 
0.576249 -0.0205163 0 
0.72452 -0.0233987 0 
0.874184 -0.0253435 0 
1.02484 -0.026594 0 
1.17614 -0.0273765 0 
1.32783 -0.0278588 0 
1.47973 -0.0281533 0 
1.63173 -0.0283317 0 
1.78378 -0.028439 0 
1.93584 -0.028503 0 
2.0879 -0.0285408 0 
2.23994 -0.0285629 0 
2.39197 -0.0285756 0 
2.54399 -0.0285827 0 
2.696 -0.0285865 0 
2.848 -0.0285884 0 
3 -0.0285889 0 
0 0 0 
0.141705 -0.0120814 0 
0.284728 -0.0234729 0 
0.429497 -0.0334057 0 
0.576164 -0.0412778 0 
0.724556 -0.0469635 0 
0.874305 -0.0507878 0 
1.025 -0.053246 0 
1.17632 -0.0547855 0 
1.32799 -0.0557353 0 
1.47987 -0.0563157 0 
1.63186 -0.0566677 0 
1.78388 -0.0568795 0 
1.93592 -0.057006 0 
2.08796 -0.0570809 0 
2.23999 -0.0571246 0 
2.39201 -0.0571498 0 
2.54402 -0.057164 0 
2.69602 -0.0571717 0 
2.84801 -0.0571754 0 
3 -0.0571765 0 
0 0 0 
0.141414 -0.0185356 0 
0.284319 -0.0359082 0 
0.429175 -0.0508584 0 
0.576046 -0.0625208 0 
0.724639 -0.07085 0 
0.874522 -0.0764268 0 
1.02528 -0.0800103 0 
1.17661 -0.0822573 0 
1.32827 -0.0836459 0 
1.48011 -0.0844956 0 
1.63206 -0.0850117 0 
1.78405 -0.0853228 0 
1.93605 -0.085509 0 
2.08806 -0.0856194 0 
2.24007 -0.0856841 0 
2.39206 -0.0857215 0 
2.54405 -0.0857427 0 
2.69604 -0.0857542 0 
2.84802 -0.0857599 0 
3 -0.0857616 0 
0 0 0 
0.140973 -0.0255431 0 
0.283732 -0.0492438 0 
0.428758 -0.0692215 0 
0.575938 -0.0844616 0 
0.724804 -0.0951933 0 
0.874855 -0.102341 0 
1.02569 -0.106933 0 
1.17702 -0.109818 0 
1.32864 -0.111604 0 
1.48044 -0.1127 0 
1.63232 -0.113367 0 
1.78426 -0.11377 0 
1.93622 -0.114012 0 
2.08819 -0.114156 0 
2.24016 -0.114241 0 
2.39214 -0.11429 0 
2.5441 -0.114318 0 
2.69607 -0.114334 0 
2.84804 -0.114341 0 
3 -0.114343 0 
0 0 0 
0.140345 -0.0334015 0 
0.282967 -0.0638834 0 
0.428302 -0.0887983 0 
0.575911 -0.107281 0 
0.725104 -0.120099 0 
0.875334 -0.128593 0 
1.02623 -0.134051 0 
1.17754 -0.137488 0 
1.32911 -0.139622 0 
1.48083 -0.140934 0 
1.63265 -0.141736 0 
1.78452 -0.142222 0 
1.93642 -0.142515 0 
2.08835 -0.14269 0 
2.24028 -0.142794 0 
2.39222 -0.142855 0 
2.54416 -0.14289 0 
2.69611 -0.14291 0 
2.84805 -0.142919 0 
3 -0.142922 0 
0 0 0 
0.139474 -0.0425516 0 
0.282063 -0.0803067 0 
0.427925 -0.109857 0 
0.576068 -0.13111 0 
0.725603 -0.145636 0 
0.875988 -0.155221 0 
1.0269 -0.161386 0 
1.17816 -0.165278 0 
1.32965 -0.167704 0 
1.48128 -0.169202 0 
1.63301 -0.17012 0 
1.7848 -0.170679 0 
1.93664 -0.171018 0 
2.08851 -0.171223 0 
2.2404 -0.171345 0 
2.39231 -0.171418 0 
2.54422 -0.17146 0 
2.69614 -0.171484 0 
2.84807 -0.171497 0 
3 -0.1715 0 
0 0 0 
0.138294 -0.0536979 0 
0.281178 -0.0990306 0 
0.427835 -0.132587 0 
0.576556 -0.15601 0 
0.726376 -0.171827 0 
0.876836 -0.182237 0 
1.02771 -0.188944 0 
1.17887 -0.193194 0 
1.33023 -0.195854 0 
1.48175 -0.197504 0 
1.63338 -0.198521 0 
1.78509 -0.199144 0 
1.93686 -0.199525 0 
2.08867 -0.199757 0 
2.24052 -0.199898 0 
2.39239 -0.199982 0 
2.54428 -0.200032 0 
2.69618 -0.200061 0 
2.84809 -0.200076 0 
3 -0.200081 0 
0 0 0 
0.136822 -0.0680023 0 
0.280745 -0.12047 0 
0.428378 -0.157042 0 
0.57755 -0.181955 0 
0.72748 -0.198645 0 
0.877877 -0.209624 0 
1.02861 -0.216719 0 
1.17961 -0.221235 0 
1.33083 -0.224076 0 
1.48221 -0.225849 0 
1.63373 -0.226947 0 
1.78535 -0.227626 0 
1.93705 -0.228044 0 
2.08882 -0.228301 0 
2.24063 -0.228459 0 
2.39247 -0.228555 0 
2.54433 -0.228613 0 
2.69621 -0.228647 0 
2.8481 -0.228664 0 
3 -0.22867 0 
0 0 0 
0.135791 -0.087098 0 
0.281743 -0.144744 0 
0.430024 -0.183054 0 
0.579206 -0.20881 0 
0.728927 -0.226022 0 
0.87906 -0.237364 0 
1.02954 -0.244719 0 
1.18033 -0.249422 0 
1.33136 -0.252394 0 
1.48261 -0.254258 0 
1.63402 -0.25542 0 
1.78557 -0.256142 0 
1.93721 -0.25659 0 
2.08893 -0.256868 0 
2.24071 -0.25704 0 
2.39252 -0.257146 0 
2.54437 -0.257211 0 
2.69624 -0.257249 0 
2.84812 -0.257269 0 
3 -0.257275 0 
0 0 0 
0.140436 -0.110724 0 
0.285853 -0.171456 0 
0.433159 -0.210562 0 
0.581508 -0.236656 0 
0.730584 -0.254076 0 
0.880237 -0.265569 0 
1.03037 -0.273039 0 
1.1809 -0.277829 0 
1.33176 -0.280866 0 
1.48289 -0.282776 0 
1.63422 -0.283972 0 
1.7857 -0.284718 0 
1.93731 -0.285184 0 
2.089 -0.285474 0 
2.24075 -0.285654 0 
2.39256 -0.285766 0 
2.54439 -0.285835 0 
2.69625 -0.285876 0 
2.84812 -0.285897 0 
3 -0.285904 0 
CELL_DATA 400
TENSORS sigma float 
2760.57 1497.42 0 1497.42 864.06 0 0 0 197.015 
3297.39 996.638 0 996.638 313.545 0 0 0 186.773 
3401.52 660.801 0 660.801 136.548 0 0 0 185.148 
3449.68 445.515 0 445.515 63.6078 0 0 0 184.294 
3482.63 298.869 0 298.869 30.0653 0 0 0 183.672 
3508.56 197.549 0 197.549 14.1926 0 0 0 183.199 
3529.64 128.316 0 128.316 6.68475 0 0 0 182.851 
3546.61 81.988 0 81.988 3.14693 0 0 0 182.611 
3559.93 51.6631 0 51.6631 1.47193 0 0 0 182.455 
3570.13 32.1902 0 32.1902 0.666297 0 0 0 182.36 
3577.78 19.8732 0 19.8732 0.270029 0 0 0 182.308 
3583.42 12.1716 0 12.1716 0.0710014 0 0 0 182.281 
3587.54 7.39833 0 7.39833 -0.0300211 0 0 0 182.269 
3590.52 4.46129 0 4.46129 -0.0808825 0 0 0 182.266 
3592.65 2.66544 0 2.66544 -0.105571 0 0 0 182.267 
3594.15 1.57332 0 1.57332 -0.116599 0 0 0 182.27 
3595.2 0.911228 0 0.911228 -0.120711 0 0 0 182.273 
3595.89 0.50765 0 0.50765 -0.121616 0 0 0 182.276 
3596.32 0.253582 0 0.253582 -0.121352 0 0 0 182.278 
3596.52 0.0766151 0 0.0766151 -0.12099 0 0 0 182.279 
2016.31 816.417 0 816.417 490.543 0 0 0 212.233 
2816.9 799.019 0 799.019 299.938 0 0 0 203.326 
3147.21 597.66 0 597.66 154.756 0 0 0 195.614 
3303.05 420.701 0 420.701 79.8117 0 0 0 191.122 
3393.58 287.375 0 287.375 41.7118 0 0 0 188.232 
3454.09 191.451 0 191.451 22.0783 0 0 0 186.226 
3497.15 124.689 0 124.689 11.8073 0 0 0 184.81 
3528.17 79.6403 0 79.6403 6.33807 0 0 0 183.833 
3550.27 50.0661 0 50.0661 3.36696 0 0 0 183.184 
3565.76 31.0779 0 31.0779 1.72254 0 0 0 182.771 
3576.49 19.092 0 19.092 0.800386 0 0 0 182.518 
3583.85 11.6225 0 11.6225 0.280816 0 0 0 182.368 
3588.86 7.01327 0 7.01327 -0.0103219 0 0 0 182.283 
3592.27 4.19243 0 4.19243 -0.170646 0 0 0 182.238 
3594.57 2.47898 0 2.47898 -0.256132 0 0 0 182.215 
3596.12 1.44558 0 1.44558 -0.299364 0 0 0 182.205 
3597.14 0.825805 0 0.825805 -0.319451 0 0 0 182.202 
3597.8 0.453505 0 0.453505 -0.327573 0 0 0 182.202 
3598.19 0.223682 0 0.223682 -0.330156 0 0 0 182.202 
3598.37 0.0670639 0 0.0670639 -0.330686 0 0 0 182.203 
1821.99 565.384 0 565.384 356.515 0 0 0 210.428 
2465.71 618.15 0 618.15 267.521 0 0 0 210.136 
2886.58 513.496 0 513.496 162.23 0 0 0 203.272 
3128.38 380.692 0 380.692 93.4155 0 0 0 197.404 
3279.58 266.986 0 266.986 53.5278 0 0 0 192.938 
3381.63 180.257 0 180.257 30.8125 0 0 0 189.565 
3452.71 118.114 0 118.114 17.7942 0 0 0 187.076 
3502.07 75.5785 0 75.5785 10.2419 0 0 0 185.311 
3535.77 47.4761 0 47.4761 5.81138 0 0 0 184.113 
3558.34 29.398 0 29.398 3.19365 0 0 0 183.334 
3573.23 17.9934 0 17.9934 1.64371 0 0 0 182.844 
3582.95 10.9014 0 10.9014 0.728742 0 0 0 182.545 
3589.26 6.5394 0 6.5394 0.19301 0 0 0 182.368 
3593.34 3.88124 0 3.88124 -0.116344 0 0 0 182.265 
3595.97 2.27526 0 2.27526 -0.291328 0 0 0 182.208 
3597.65 1.31325 0 1.31325 -0.387464 0 0 0 182.177 
3598.71 0.741422 0 0.741422 -0.43821 0 0 0 182.161 
3599.37 0.402099 0 0.402099 -0.463569 0 0 0 182.154 
3599.74 0.196102 0 0.196102 -0.475239 0 0 0 182.151 
3599.92 0.0583877 0 0.0583877 -0.479653 0 0 0 182.15 
1747.83 423.295 0 423.295 290.139 0 0 0 208.582 
2237.92 472.502 0 472.502 236.645 0 0 0 212.114 
2667.58 426.517 0 426.517 162.502 0 0 0 207.957 
2964.77 333.651 0 333.651 102.683 0 0 0 202.137 
3166.77 240.873 0 240.873 63.1967 0 0 0 196.864 
3307.54 165.034 0 165.034 38.572 0 0 0 192.535 
3406.14 108.86 0 108.86 23.398 0 0 0 189.187 
3474.06 69.8032 0 69.8032 14.0537 0 0 0 186.744 
3519.69 43.8273 0 43.8273 8.30203 0 0 0 185.054 
3549.62 27.0829 0 27.0829 4.7713 0 0 0 183.934 
3568.91 16.5239 0 16.5239 2.6144 0 0 0 183.217 
3581.19 9.9695 0 9.9695 1.30539 0 0 0 182.77 
3588.93 5.94955 0 5.94955 0.517615 0 0 0 182.497 
3593.79 3.50886 0 3.50886 0.0485439 0 0 0 182.333 
3596.81 2.04117 0 2.04117 -0.226967 0 0 0 182.237 
3598.68 1.16727 0 1.16727 -0.385953 0 0 0 182.182 
3599.82 0.651926 0 0.651926 -0.475563 0 0 0 182.151 
3600.5 0.349452 0 0.349452 -0.524364 0 0 0 182.135 
3600.88 0.168606 0 0.168606 -0.549257 0 0 0 182.127 
3601.05 0.049865 0 0.049865 -0.559618 0 0 0 182.123 
1712.56 324.573 0 324.573 251.756 0 0 0 207.327 
2098.4 361.083 0 361.083 213.279 0 0 0 212.1 
2496.09 343.491 0 343.491 159.35 0 0 0 210.515 
2820.03 282.236 0 282.236 108.692 0 0 0 205.582 
3061.28 209.965 0 209.965 70.8761 0 0 0 200.056 
3236.61 146.142 0 146.142 45.1682 0 0 0 195.074 
3361.17 97.0882 0 97.0882 28.3145 0 0 0 191.039 
3446.9 62.3999 0 62.3999 17.4634 0 0 0 188.023 
3504.02 39.1671 0 39.1671 10.5692 0 0 0 185.906 
3541.04 24.1589 0 24.1589 6.23924 0 0 0 184.49 
3564.54 14.6973 0 14.6973 3.5468 0 0 0 183.574 
3579.23 8.83357 0 8.83357 1.88737 0 0 0 182.996 
3588.33 5.24626 0 5.24626 0.873061 0 0 0 182.637 
3593.91 3.07558 0 3.07558 0.258372 0 0 0 182.418 
3597.31 1.77591 0 1.77591 -0.110539 0 0 0 182.286 
3599.35 1.0064 0 1.0064 -0.329297 0 0 0 182.208 
3600.57 0.556035 0 0.556035 -0.456876 0 0 0 182.162 
3601.28 0.294507 0 0.294507 -0.529229 0 0 0 182.136 
3601.66 0.140509 0 0.140509 -0.567743 0 0 0 182.123 
3601.83 0.0412591 0 0.0412591 -0.584342 0 0 0 182.117 
1693.27 247.664 0 247.664 227.698 0 0 0 206.486 
2012.19 273.348 0 273.348 196.775 0 0 0 211.527 
2369.65 267.887 0 267.887 155.174 0 0 0 211.704 
2699.54 229.12 0 229.12 112.329 0 0 0 207.944 
2967.9 175.378 0 175.378 76.7852 0 0 0 202.563 
3172.1 124.003 0 124.003 50.6123 0 0 0 197.182 
3319.87 82.9776 0 82.9776 32.4866 0 0 0 192.612 
3421.94 53.4617 0 53.4617 20.3901 0 0 0 189.118 
3489.65 33.5545 0 33.5545 12.527 0 0 0 186.641 
3533.19 20.6663 0 20.6663 7.51474 0 0 0 184.972 
3560.53 12.5415 0 12.5415 4.36582 0 0 0 183.887 
3577.43 7.51256 0 7.51256 2.40888 0 0 0 183.198 
3587.73 4.44235 0 4.44235 1.20309 0 0 0 182.767 
3593.94 2.58989 0 2.58989 0.465704 0 0 0 182.502 
3597.65 1.48497 0 1.48497 0.0181836 0 0 0 182.34 
3599.83 0.834112 0 0.834112 -0.250953 0 0 0 182.242 
3601.1 0.455887 0 0.455887 -0.410656 0 0 0 182.183 
3601.81 0.238507 0 0.238507 -0.503045 0 0 0 182.149 
3602.19 0.112447 0 0.112447 -0.553218 0 0 0 182.131 
3602.35 0.0327649 0 0.0327649 -0.575178 0 0 0 182.123 
1681.85 183.253 0 183.253 212.088 0 0 0 205.918 
1957.95 200.789 0 200.789 185.433 0 0 0 210.914 
2280.74 200.003 0 200.003 151.27 0 0 0 212.143 
2605.35 176.203 0 176.203 114.363 0 0 0 209.462 
2890.26 138.249 0 138.249 81.1424 0 0 0 204.437 
3116.9 99.1752 0 99.1752 54.9204 0 0 0 198.859 
3284.16 66.8121 0 66.8121 35.878 0 0 0 193.893 
3400.3 43.1481 0 43.1481 22.7922 0 0 0 190.018 
3477.22 27.0845 0 27.0845 14.1379 0 0 0 187.244 
3526.42 16.663 0 16.663 8.565 0 0 0 185.368 
3557.11 10.0924 0 10.0924 5.04158 0 0 0 184.145 
3575.89 6.02896 0 6.02896 2.84196 0 0 0 183.366 
3587.22 3.5521 0 3.5521 1.48123 0 0 0 182.877 
3593.96 2.06101 0 2.06101 0.645496 0 0 0 182.574 
3597.91 1.1744 0 1.1744 0.135593 0 0 0 182.388 
3600.19 0.654376 0 0.654376 -0.173131 0 0 0 182.274 
3601.48 0.354048 0 0.354048 -0.357854 0 0 0 182.206 
3602.19 0.183042 0 0.183042 -0.465738 0 0 0 182.166 
3602.56 0.0852872 0 0.0852872 -0.524878 0 0 0 182.144 
3602.71 0.0246573 0 0.0246573 -0.55095 0 0 0 182.134 
1674.92 126.439 0 126.439 202.022 0 0 0 205.542 
1923.97 137.78 0 137.78 177.902 0 0 0 210.421 
2221.26 138.445 0 138.445 148.192 0 0 0 212.238 
2537.02 124.447 0 124.447 115.407 0 0 0 210.372 
2830.72 99.5464 0 99.5464 84.1676 0 0 0 205.749 
3073.42 72.2761 0 72.2761 58.1134 0 0 0 200.107 
3255.73 48.9683 0 48.9683 38.4542 0 0 0 194.868 
3383.02 31.6883 0 31.6883 24.6325 0 0 0 190.707 
3467.3 19.895 0 19.895 15.3744 0 0 0 187.706 
3521.03 12.2305 0 12.2305 9.37061 0 0 0 185.671 
3554.39 7.39729 0 7.39729 5.55948 0 0 0 184.342 
3574.69 4.40995 0 4.40995 3.17421 0 0 0 183.494 
3586.83 2.59101 0 2.59101 1.69575 0 0 0 182.962 
3593.98 1.49776 0 1.49776 0.785962 0 0 0 182.631 
3598.12 0.849204 0 0.849204 0.229598 0 0 0 182.427 
3600.47 0.470063 0 0.470063 -0.108249 0 0 0 182.302 