# vtk DataFile Version 2.0
Generated by inSilico's base::io::vtk::LegacyWriter
ASCII
DATASET UNSTRUCTURED_GRID
POINTS 441 float
0 0 0 
0.05 0 0 
0.1 0 0 
0.15 0 0 
0.2 0 0 
0.25 0 0 
0.3 0 0 
0.35 0 0 
0.4 0 0 
0.45 0 0 
0.5 0 0 
0.55 0 0 
0.6 0 0 
0.65 0 0 
0.7 0 0 
0.75 0 0 
0.8 0 0 
0.85 0 0 
0.9 0 0 
0.95 0 0 
1 0 0 
0 0.05 0 
0.05 0.05 0 
0.1 0.05 0 
0.15 0.05 0 
0.2 0.05 0 
0.25 0.05 0 
0.3 0.05 0 
0.35 0.05 0 
0.4 0.05 0 
0.45 0.05 0 
0.5 0.05 0 
0.55 0.05 0 
0.6 0.05 0 
0.65 0.05 0 
0.7 0.05 0 
0.75 0.05 0 
0.8 0.05 0 
0.85 0.05 0 
0.9 0.05 0 
0.95 0.05 0 
1 0.05 0 
0 0.1 0 
0.05 0.1 0 
0.1 0.1 0 
0.15 0.1 0 
0.2 0.1 0 
0.25 0.1 0 
0.3 0.1 0 
0.35 0.1 0 
0.4 0.1 0 
0.45 0.1 0 
0.5 0.1 0 
0.55 0.1 0 
0.6 0.1 0 
0.65 0.1 0 
0.7 0.1 0 
0.75 0.1 0 
0.8 0.1 0 
0.85 0.1 0 
0.9 0.1 0 
0.95 0.1 0 
1 0.1 0 
0 0.15 0 
0.05 0.15 0 
0.1 0.15 0 
0.15 0.15 0 
0.2 0.15 0 
0.25 0.15 0 
0.3 0.15 0 
0.35 0.15 0 
0.4 0.15 0 
0.45 0.15 0 
0.5 0.15 0 
0.55 0.15 0 
0.6 0.15 0 
0.65 0.15 0 
0.7 0.15 0 
0.75 0.15 0 
0.8 0.15 0 
0.85 0.15 0 
0.9 0.15 0 
0.95 0.15 0 
1 0.15 0 
0 0.2 0 
0.05 0.2 0 
0.1 0.2 0 
0.15 0.2 0 
0.2 0.2 0 
0.25 0.2 0 
0.3 0.2 0 
0.35 0.2 0 
0.4 0.2 0 
0.45 0.2 0 
0.5 0.2 0 
0.55 0.2 0 
0.6 0.2 0 
0.65 0.2 0 
0.7 0.2 0 
0.75 0.2 0 
0.8 0.2 0 
0.85 0.2 0 
0.9 0.2 0 
0.95 0.2 0 
1 0.2 0 
0 0.25 0 
0.05 0.25 0 
0.1 0.25 0 
0.15 0.25 0 
0.2 0.25 0 
0.25 0.25 0 
0.3 0.25 0 
0.35 0.25 0 
0.4 0.25 0 
0.45 0.25 0 
0.5 0.25 0 
0.55 0.25 0 
0.6 0.25 0 
0.65 0.25 0 
0.7 0.25 0 
0.75 0.25 0 
0.8 0.25 0 
0.85 0.25 0 
0.9 0.25 0 
0.95 0.25 0 
1 0.25 0 
0 0.3 0 
0.05 0.3 0 
0.1 0.3 0 
0.15 0.3 0 
0.2 0.3 0 
0.25 0.3 0 
0.3 0.3 0 
0.35 0.3 0 
0.4 0.3 0 
0.45 0.3 0 
0.5 0.3 0 
0.55 0.3 0 
0.6 0.3 0 
0.65 0.3 0 
0.7 0.3 0 
0.75 0.3 0 
0.8 0.3 0 
0.85 0.3 0 
0.9 0.3 0 
0.95 0.3 0 
1 0.3 0 
0 0.35 0 
0.05 0.35 0 
0.1 0.35 0 
0.15 0.35 0 
0.2 0.35 0 
0.25 0.35 0 
0.3 0.35 0 
0.35 0.35 0 
0.4 0.35 0 
0.45 0.35 0 
0.5 0.35 0 
0.55 0.35 0 
0.6 0.35 0 
0.65 0.35 0 
0.7 0.35 0 
0.75 0.35 0 
0.8 0.35 0 
0.85 0.35 0 
0.9 0.35 0 
0.95 0.35 0 
1 0.35 0 
0 0.4 0 
0.05 0.4 0 
0.1 0.4 0 
0.15 0.4 0 
0.2 0.4 0 
0.25 0.4 0 
0.3 0.4 0 
0.35 0.4 0 
0.4 0.4 0 
0.45 0.4 0 
0.5 0.4 0 
0.55 0.4 0 
0.6 0.4 0 
0.65 0.4 0 
0.7 0.4 0 
0.75 0.4 0 
0.8 0.4 0 
0.85 0.4 0 
0.9 0.4 0 
0.95 0.4 0 
1 0.4 0 
0 0.45 0 
0.05 0.45 0 
0.1 0.45 0 
0.15 0.45 0 
0.2 0.45 0 
0.25 0.45 0 
0.3 0.45 0 
0.35 0.45 0 
0.4 0.45 0 
0.45 0.45 0 
0.5 0.45 0 
0.55 0.45 0 
0.6 0.45 0 
0.65 0.45 0 
0.7 0.45 0 
0.75 0.45 0 
0.8 0.45 0 
0.85 0.45 0 
0.9 0.45 0 
0.95 0.45 0 
1 0.45 0 
0 0.5 0 
0.05 0.5 0 
0.1 0.5 0 
0.15 0.5 0 
0.2 0.5 0 
0.25 0.5 0 
0.3 0.5 0 
0.35 0.5 0 
0.4 0.5 0 
0.45 0.5 0 
0.5 0.5 0 
0.55 0.5 0 
0.6 0.5 0 
0.65 0.5 0 
0.7 0.5 0 
0.75 0.5 0 
0.8 0.5 0 
0.85 0.5 0 
0.9 0.5 0 
0.95 0.5 0 
1 0.5 0 
0 0.55 0 
0.05 0.55 0 
0.1 0.55 0 
0.15 0.55 0 
0.2 0.55 0 
0.25 0.55 0 
0.3 0.55 0 
0.35 0.55 0 
0.4 0.55 0 
0.45 0.55 0 
0.5 0.55 0 
0.55 0.55 0 
0.6 0.55 0 
0.65 0.55 0 
0.7 0.55 0 
0.75 0.55 0 
0.8 0.55 0 
0.85 0.55 0 
0.9 0.55 0 
0.95 0.55 0 
1 0.55 0 
0 0.6 0 
0.05 0.6 0 
0.1 0.6 0 
0.15 0.6 0 
0.2 0.6 0 
0.25 0.6 0 
0.3 0.6 0 
0.35 0.6 0 
0.4 0.6 0 
0.45 0.6 0 
0.5 0.6 0 
0.55 0.6 0 
0.6 0.6 0 
0.65 0.6 0 
0.7 0.6 0 
0.75 0.6 0 
0.8 0.6 0 
0.85 0.6 0 
0.9 0.6 0 
0.95 0.6 0 
1 0.6 0 
0 0.65 0 
0.05 0.65 0 
0.1 0.65 0 
0.15 0.65 0 
0.2 0.65 0 
0.25 0.65 0 
0.3 0.65 0 
0.35 0.65 0 
0.4 0.65 0 
0.45 0.65 0 
0.5 0.65 0 
0.55 0.65 0 
0.6 0.65 0 
0.65 0.65 0 
0.7 0.65 0 
0.75 0.65 0 
0.8 0.65 0 
0.85 0.65 0 
0.9 0.65 0 
0.95 0.65 0 
1 0.65 0 
0 0.7 0 
0.05 0.7 0 
0.1 0.7 0 
0.15 0.7 0 
0.2 0.7 0 
0.25 0.7 0 
0.3 0.7 0 
0.35 0.7 0 
0.4 0.7 0 
0.45 0.7 0 
0.5 0.7 0 
0.55 0.7 0 
0.6 0.7 0 
0.65 0.7 0 
0.7 0.7 0 
0.75 0.7 0 
0.8 0.7 0 
0.85 0.7 0 
0.9 0.7 0 
0.95 0.7 0 
1 0.7 0 
0 0.75 0 
0.05 0.75 0 
0.1 0.75 0 
0.15 0.75 0 
0.2 0.75 0 
0.25 0.75 0 
0.3 0.75 0 
0.35 0.75 0 
0.4 0.75 0 
0.45 0.75 0 
0.5 0.75 0 
0.55 0.75 0 
0.6 0.75 0 
0.65 0.75 0 
0.7 0.75 0 
0.75 0.75 0 
0.8 0.75 0 
0.85 0.75 0 
0.9 0.75 0 
0.95 0.75 0 
1 0.75 0 
0 0.8 0 
0.05 0.8 0 
0.1 0.8 0 
0.15 0.8 0 
0.2 0.8 0 
0.25 0.8 0 
0.3 0.8 0 
0.35 0.8 0 
0.4 0.8 0 
0.45 0.8 0 
0.5 0.8 0 
0.55 0.8 0 
0.6 0.8 0 
0.65 0.8 0 
0.7 0.8 0 
0.75 0.8 0 
0.8 0.8 0 
0.85 0.8 0 
0.9 0.8 0 
0.95 0.8 0 
1 0.8 0 
0 0.85 0 
0.05 0.85 0 
0.1 0.85 0 
0.15 0.85 0 
0.2 0.85 0 
0.25 0.85 0 
0.3 0.85 0 
0.35 0.85 0 
0.4 0.85 0 
0.45 0.85 0 
0.5 0.85 0 
0.55 0.85 0 
0.6 0.85 0 
0.65 0.85 0 
0.7 0.85 0 
0.75 0.85 0 
0.8 0.85 0 
0.85 0.85 0 
0.9 0.85 0 
0.95 0.85 0 
1 0.85 0 
0 0.9 0 
0.05 0.9 0 
0.1 0.9 0 
0.15 0.9 0 
0.2 0.9 0 
0.25 0.9 0 
0.3 0.9 0 
0.35 0.9 0 
0.4 0.9 0 
0.45 0.9 0 
0.5 0.9 0 
0.55 0.9 0 
0.6 0.9 0 
0.65 0.9 0 
0.7 0.9 0 
0.75 0.9 0 
0.8 0.9 0 
0.85 0.9 0 
0.9 0.9 0 
0.95 0.9 0 
1 0.9 0 
0 0.95 0 
0.05 0.95 0 
0.1 0.95 0 
0.15 0.95 0 
0.2 0.95 0 
0.25 0.95 0 
0.3 0.95 0 
0.35 0.95 0 
0.4 0.95 0 
0.45 0.95 0 
0.5 0.95 0 
0.55 0.95 0 
0.6 0.95 0 
0.65 0.95 0 
0.7 0.95 0 
0.75 0.95 0 
0.8 0.95 0 
0.85 0.95 0 
0.9 0.95 0 
0.95 0.95 0 
1 0.95 0 
0 1 0 
0.05 1 0 
0.1 1 0 
0.15 1 0 
0.2 1 0 
0.25 1 0 
0.3 1 0 
0.35 1 0 
0.4 1 0 
0.45 1 0 
0.5 1 0 
0.55 1 0 
0.6 1 0 
0.65 1 0 
0.7 1 0 
0.75 1 0 
0.8 1 0 
0.85 1 0 
0.9 1 0 
0.95 1 0 
1 1 0 
CELLS 400 2000
4 0 1 22 21 
4 1 2 23 22 
4 2 3 24 23 
4 3 4 25 24 
4 4 5 26 25 
4 5 6 27 26 
4 6 7 28 27 
4 7 8 29 28 
4 8 9 30 29 
4 9 10 31 30 
4 10 11 32 31 
4 11 12 33 32 
4 12 13 34 33 
4 13 14 35 34 
4 14 15 36 35 
4 15 16 37 36 
4 16 17 38 37 
4 17 18 39 38 
4 18 19 40 39 
4 19 20 41 40 
4 21 22 43 42 
4 22 23 44 43 
4 23 24 45 44 
4 24 25 46 45 
4 25 26 47 46 
4 26 27 48 47 
4 27 28 49 48 
4 28 29 50 49 
4 29 30 51 50 
4 30 31 52 51 
4 31 32 53 52 
4 32 33 54 53 
4 33 34 55 54 
4 34 35 56 55 
4 35 36 57 56 
4 36 37 58 57 
4 37 38 59 58 
4 38 39 60 59 
4 39 40 61 60 
4 40 41 62 61 
4 42 43 64 63 
4 43 44 65 64 
4 44 45 66 65 
4 45 46 67 66 
4 46 47 68 67 
4 47 48 69 68 
4 48 49 70 69 
4 49 50 71 70 
4 50 51 72 71 
4 51 52 73 72 
4 52 53 74 73 
4 53 54 75 74 
4 54 55 76 75 
4 55 56 77 76 
4 56 57 78 77 
4 57 58 79 78 
4 58 59 80 79 
4 59 60 81 80 
4 60 61 82 81 
4 61 62 83 82 
4 63 64 85 84 
4 64 65 86 85 
4 65 66 87 86 
4 66 67 88 87 
4 67 68 89 88 
4 68 69 90 89 
4 69 70 91 90 
4 70 71 92 91 
4 71 72 93 92 
4 72 73 94 93 
4 73 74 95 94 
4 74 75 96 95 
4 75 76 97 96 
4 76 77 98 97 
4 77 78 99 98 
4 78 79 100 99 
4 79 80 101 100 
4 80 81 102 101 
4 81 82 103 102 
4 82 83 104 103 
4 84 85 106 105 
4 85 86 107 106 
4 86 87 108 107 
4 87 88 109 108 
4 88 89 110 109 
4 89 90 111 110 
4 90 91 112 111 
4 91 92 113 112 
4 92 93 114 113 
4 93 94 115 114 
4 94 95 116 115 
4 95 96 117 116 
4 96 97 118 117 
4 97 98 119 118 
4 98 99 120 119 
4 99 100 121 120 
4 100 101 122 121 
4 101 102 123 122 
4 102 103 124 123 
4 103 104 125 124 
4 105 106 127 126 
4 106 107 128 127 
4 107 108 129 128 
4 108 109 130 129 
4 109 110 131 130 
4 110 111 132 131 
4 111 112 133 132 
4 112 113 134 133 
4 113 114 135 134 
4 114 115 136 135 
4 115 116 137 136 
4 116 117 138 137 
4 117 118 139 138 
4 118 119 140 139 
4 119 120 141 140 
4 120 121 142 141 
4 121 122 143 142 
4 122 123 144 143 
4 123 124 145 144 
4 124 125 146 145 
4 126 127 148 147 
4 127 128 149 148 
4 128 129 150 149 
4 129 130 151 150 
4 130 131 152 151 
4 131 132 153 152 
4 132 133 154 153 
4 133 134 155 154 
4 134 135 156 155 
4 135 136 157 156 
4 136 137 158 157 
4 137 138 159 158 
4 138 139 160 159 
4 139 140 161 160 
4 140 141 162 161 
4 141 142 163 162 
4 142 143 164 163 
4 143 144 165 164 
4 144 145 166 165 
4 145 146 167 166 
4 147 148 169 168 
4 148 149 170 169 
4 149 150 171 170 
4 150 151 172 171 
4 151 152 173 172 
4 152 153 174 173 
4 153 154 175 174 
4 154 155 176 175 
4 155 156 177 176 
4 156 157 178 177 
4 157 158 179 178 
4 158 159 180 179 
4 159 160 181 180 
4 160 161 182 181 
4 161 162 183 182 
4 162 163 184 183 
4 163 164 185 184 
4 164 165 186 185 
4 165 166 187 186 
4 166 167 188 187 
4 168 169 190 189 
4 169 170 191 190 
4 170 171 192 191 
4 171 172 193 192 
4 172 173 194 193 
4 173 174 195 194 
4 174 175 196 195 
4 175 176 197 196 
4 176 177 198 197 
4 177 178 199 198 
4 178 179 200 199 
4 179 180 201 200 
4 180 181 202 201 
4 181 182 203 202 
4 182 183 204 203 
4 183 184 205 204 
4 184 185 206 205 
4 185 186 207 206 
4 186 187 208 207 
4 187 188 209 208 
4 189 190 211 210 
4 190 191 212 211 
4 191 192 213 212 
4 192 193 214 213 
4 193 194 215 214 
4 194 195 216 215 
4 195 196 217 216 
4 196 197 218 217 
4 197 198 219 218 
4 198 199 220 219 
4 199 200 221 220 
4 200 201 222 221 
4 201 202 223 222 
4 202 203 224 223 
4 203 204 225 224 
4 204 205 226 225 
4 205 206 227 226 
4 206 207 228 227 
4 207 208 229 228 
4 208 209 230 229 
4 210 211 232 231 
4 211 212 233 232 
4 212 213 234 233 
4 213 214 235 234 
4 214 215 236 235 
4 215 216 237 236 
4 216 217 238 237 
4 217 218 239 238 
4 218 219 240 239 
4 219 220 241 240 
4 220 221 242 241 
4 221 222 243 242 
4 222 223 244 243 
4 223 224 245 244 
4 224 225 246 245 
4 225 226 247 246 
4 226 227 248 247 
4 227 228 249 248 
4 228 229 250 249 
4 229 230 251 250 
4 231 232 253 252 
4 232 233 254 253 
4 233 234 255 254 
4 234 235 256 255 
4 235 236 257 256 
4 236 237 258 257 
4 237 238 259 258 
4 238 239 260 259 
4 239 240 261 260 
4 240 241 262 261 
4 241 242 263 262 
4 242 243 264 263 
4 243 244 265 264 
4 244 245 266 265 
4 245 246 267 266 
4 246 247 268 267 
4 247 248 269 268 
4 248 249 270 269 
4 249 250 271 270 
4 250 251 272 271 
4 252 253 274 273 
4 253 254 275 274 
4 254 255 276 275 
4 255 256 277 276 
4 256 257 278 277 
4 257 258 279 278 
4 258 259 280 279 
4 259 260 281 280 
4 260 261 282 281 
4 261 262 283 282 
4 262 263 284 283 
4 263 264 285 284 
4 264 265 286 285 
4 265 266 287 286 
4 266 267 288 287 
4 267 268 289 288 
4 268 269 290 289 
4 269 270 291 290 
4 270 271 292 291 
4 271 272 293 292 
4 273 274 295 294 
4 274 275 296 295 
4 275 276 297 296 
4 276 277 298 297 
4 277 278 299 298 
4 278 279 300 299 
4 279 280 301 300 
4 280 281 302 301 
4 281 282 303 302 
4 282 283 304 303 
4 283 284 305 304 
4 284 285 306 305 
4 285 286 307 306 
4 286 287 308 307 
4 287 288 309 308 
4 288 289 310 309 
4 289 290 311 310 
4 290 291 312 311 
4 291 292 313 312 
4 292 293 314 313 
4 294 295 316 315 
4 295 296 317 316 
4 296 297 318 317 
4 297 298 319 318 
4 298 299 320 319 
4 299 300 321 320 
4 300 301 322 321 
4 301 302 323 322 
4 302 303 324 323 
4 303 304 325 324 
4 304 305 326 325 
4 305 306 327 326 
4 306 307 328 327 
4 307 308 329 328 
4 308 309 330 329 
4 309 310 331 330 
4 310 311 332 331 
4 311 312 333 332 
4 312 313 334 333 
4 313 314 335 334 
4 315 316 337 336 
4 316 317 338 337 
4 317 318 339 338 
4 318 319 340 339 
4 319 320 341 340 
4 320 321 342 341 
4 321 322 343 342 
4 322 323 344 343 
4 323 324 345 344 
4 324 325 346 345 
4 325 326 347 346 
4 326 327 348 347 
4 327 328 349 348 
4 328 329 350 349 
4 329 330 351 350 
4 330 331 352 351 
4 331 332 353 352 
4 332 333 354 353 
4 333 334 355 354 
4 334 335 356 355 
4 336 337 358 357 
4 337 338 359 358 
4 338 339 360 359 
4 339 340 361 360 
4 340 341 362 361 
4 341 342 363 362 
4 342 343 364 363 
4 343 344 365 364 
4 344 345 366 365 
4 345 346 367 366 
4 346 347 368 367 
4 347 348 369 368 
4 348 349 370 369 
4 349 350 371 370 
4 350 351 372 371 
4 351 352 373 372 
4 352 353 374 373 
4 353 354 375 374 
4 354 355 376 375 
4 355 356 377 376 
4 357 358 379 378 
4 358 359 380 379 
4 359 360 381 380 
4 360 361 382 381 
4 361 362 383 382 
4 362 363 384 383 
4 363 364 385 384 
4 364 365 386 385 
4 365 366 387 386 
4 366 367 388 387 
4 367 368 389 388 
4 368 369 390 389 
4 369 370 391 390 
4 370 371 392 391 
4 371 372 393 392 
4 372 373 394 393 
4 373 374 395 394 
4 374 375 396 395 
4 375 376 397 396 
4 376 377 398 397 
4 378 379 400 399 
4 379 380 401 400 
4 380 381 402 401 
4 381 382 403 402 
4 382 383 404 403 
4 383 384 405 404 
4 384 385 406 405 
4 385 386 407 406 
4 386 387 408 407 
4 387 388 409 408 
4 388 389 410 409 
4 389 390 411 410 
4 390 391 412 411 
4 391 392 413 412 
4 392 393 414 413 
4 393 394 415 414 
4 394 395 416 415 
4 395 396 417 416 
4 396 397 418 417 
4 397 398 419 418 
4 399 400 421 420 
4 400 401 422 421 
4 401 402 423 422 
4 402 403 424 423 
4 403 404 425 424 
4 404 405 426 425 
4 405 406 427 426 
4 406 407 428 427 
4 407 408 429 428 
4 408 409 430 429 
4 409 410 431 430 
4 410 411 432 431 
4 411 412 433 432 
4 412 413 434 433 
4 413 414 435 434 
4 414 415 436 435 
4 415 416 437 436 
4 416 417 438 437 
4 417 418 439 438 
4 418 419 440 439 
CELL_TYPES 400
9
9
9
9
9
9
9
9
9
9
9
9
9
9
9
9
9
9
9
9
9
9
9
9
9
9
9
9
9
9
9
9
9
9
9
9
9
9
9
9
9
9
9
9
9
9
9
9
9
9
9
9
9
9
9
9
9
9
9
9
9
9
9
9
9
9
9
9
9
9
9
9
9
9
9
9
9
9
9
9
9
9
9
9
9
9
9
9
9
9
9
9
9
9
9
9
9
9
9
9
9
9
9
9
9
9
9
9
9
9
9
9
9
9
9
9
9
9
9
9
9
9
9
9
9
9
9
9
9
9
9
9
9
9
9
9
9
9
9
9
9
9
9
9
9
9
9
9
9
9
9
9
9
9
9
9
9
9
9
9
9
9
9
9
9
9
9
9
9
9
9
9
9
9
9
9
9
9
9
9
9
9
9
9
9
9
9
9
9
9
9
9
9
9
9
9
9
9
9
9
9
9
9
9
9
9
9
9
9
9
9
9
9
9
9
9
9
9
9
9
9
9
9
9
9
9
9
9
9
9
9
9
9
9
9
9
9
9
9
9
9
9
9
9
9
9
9
9
9
9
9
9
9
9
9
9
9
9
9
9
9
9
9
9
9
9
9
9
9
9
9
9
9
9
9
9
9
9
9
9
9
9
9
9
9
9
9
9
9
9
9
9
9
9
9
9
9
9
9
9
9
9
9
9
9
9
9
9
9
9
9
9
9
9
9
9
9
9
9
9
9
9
9
9
9
9
9
9
9
9
9
9
9
9
9
9
9
9
9
9
9
9
9
9
9
9
9
9
9
9
9
9
9
9
9
9
9
9
9
9
9
9
9
9
9
9
9
9
9
9
9
9
9
9
9
9
9
9
9
9
9
9
9
9
9
9
9
9
9
9
9
9
9
9
9
9
9
9
9
9
POINT_DATA 441
VECTORS disp float 
0 0 0 
0.0105716 0.00997638 0 
0.0184484 0.0157284 0 
0.0256466 0.0197268 0 
0.0326213 0.0226694 0 
0.0395389 0.0248789 0 
0.0464757 0.026548 0 
0.0534689 0.0278082 0 
0.0605356 0.0287549 0 
0.0676821 0.0294607 0 
0.0749076 0.0299816 0 
0.0822077 0.0303612 0 
0.0895757 0.0306338 0 
0.0970036 0.0308263 0 
0.104483 0.0309597 0 
0.112006 0.0310499 0 
0.119564 0.0311093 0 
0.12715 0.0311471 0 
0.134755 0.0311697 0 
0.142374 0.0311815 0 
0.15 0.0311852 0 
0 0 0 
0.00732441 0.00702967 0 
0.0154326 0.0126678 0 
0.0231795 0.0167614 0 
0.0306555 0.0197696 0 
0.0379883 0.0220077 0 
0.0452611 0.0236808 0 
0.0525239 0.0249302 0 
0.0598059 0.0258582 0 
0.0671231 0.0265415 0 
0.0744833 0.0270389 0 
0.0818888 0.0273958 0 
0.0893386 0.0276474 0 
0.0968295 0.0278213 0 
0.104357 0.0279385 0 
0.111916 0.0280153 0 
0.119502 0.0280639 0 
0.127108 0.0280934 0 
0.13473 0.0281102 0 
0.142363 0.0281186 0 
0.15 0.0281212 0 
0 0 0 
0.00653463 0.00534858 0 
0.0138849 0.0101727 0 
0.0214957 0.0140061 0 
0.0290913 0.016931 0 
0.0366237 0.019136 0 
0.0441079 0.0207882 0 
0.0515682 0.0220183 0 
0.0590248 0.0229264 0 
0.0664921 0.0235894 0 
0.0739788 0.024067 0 
0.0814895 0.0244051 0 
0.0890258 0.0246397 0 
0.0965872 0.0247986 0 
0.104172 0.0249029 0 
0.111778 0.0249689 0 
0.119401 0.0250089 0 
0.127038 0.0250317 0 
0.134686 0.0250439 0 
0.142341 0.0250496 0 
0.15 0.0250512 0 
0 0 0 
0.00624432 0.00422966 0 
0.0131442 0.00820603 0 
0.0204636 0.0115763 0 
0.0279677 0.0142661 0 
0.0355326 0.0163466 0 
0.0431109 0.0179259 0 
0.0506901 0.019108 0 
0.0582705 0.0199809 0 
0.065856 0.0206162 0 
0.0734504 0.021071 0 
0.0810564 0.0213902 0 
0.0886753 0.0216089 0 
0.0963076 0.0217545 0 
0.103952 0.0218481 0 
0.111609 0.0219055 0 
0.119275 0.0219387 0 
0.126949 0.0219565 0 
0.134629 0.0219652 0 
0.142314 0.0219688 0 
0.15 0.0219698 0 
0 0 0 
0.00610847 0.00338019 0 
0.0127586 0.00660941 0 
0.0198397 0.009454 0 
0.027197 0.0118109 0 
0.0347088 0.013685 0 
0.0423015 0.0151335 0 
0.0499357 0.0162294 0 
0.0575923 0.0170429 0 
0.0652621 0.0176358 0 
0.0729411 0.0180594 0 
0.0806273 0.0183553 0 
0.0883198 0.0185565 0 
0.0960176 0.018689 0 
0.10372 0.0187726 0 
0.111427 0.0188226 0 
0.119138 0.0188505 0 
0.126851 0.0188646 0 
0.134566 0.0188708 0 
0.142283 0.018873 0 
0.15 0.0188735 0 
0 0 0 
0.00603629 0.00267801 0 
0.0125408 0.00525443 0 
0.0194539 0.00757613 0 
0.0266755 0.00955288 0 
0.0341071 0.0111629 0 
0.0416723 0.0124304 0 
0.0493195 0.0134015 0 
0.0570156 0.0141283 0 
0.0647404 0.0146603 0 
0.0724814 0.0150409 0 
0.080231 0.0153063 0 
0.0879848 0.0154862 0 
0.0957399 0.0156037 0 
0.103495 0.0156771 0 
0.111249 0.0157203 0 
0.119001 0.0157436 0 
0.126752 0.0157548 0 
0.134502 0.0157593 0 
0.142251 0.0157606 0 
0.15 0.0157609 0 
0 0 0 
0.00599523 0.0020647 0 
0.0124107 0.00405795 0 
0.0192095 0.00587891 0 
0.0263242 0.00745866 0 
0.0336776 0.00876969 0 
0.0412006 0.00981843 0 
0.0488381 0.0106319 0 
0.0565496 0.011246 0 
0.0643069 0.011698 0 
0.0720906 0.0120224 0 
0.0798877 0.0122489 0 
0.0876899 0.0124021 0 
0.0954921 0.0125019 0 
0.103291 0.0125638 0 
0.111086 0.0125999 0 
0.118876 0.012619 0 
0.126661 0.0126278 0 
0.134443 0.0126311 0 
0.142222 0.0126319 0 
0.15 0.0126319 0 
0 0 0 
0.00597117 0.00150796 0 
0.012331 0.00296645 0 
0.0190538 0.0043101 0 
0.0260906 0.00549044 0 
0.0333801 0.00648342 0 
0.0408614 0.00728773 0 
0.0484807 0.00791809 0 
0.0561943 0.00839775 0 
0.0639689 0.00875281 0 
0.0717801 0.00900853 0 
0.0796107 0.0091874 0 
0.087449 0.00930846 0 
0.0952875 0.0093872 0 
0.103122 0.00943589 0 
0.11095 0.00946404 0 
0.11877 0.00947882 0 
0.126584 0.0094855 0 
0.134393 0.00948784 0 
0.142197 0.0094883 0 
0.15 0.0094883 0 
0 0 0 
0.00595725 0.000987409 0 
0.0122831 0.00194341 0 
0.0189577 0.00282861 0 
0.0259422 0.0036124 0 
0.0331858 0.00427779 0 
0.040634 0.00482154 0 
0.0482354 0.00525096 0 
0.0559455 0.00557974 0 
0.0637282 0.00582423 0 
0.0715559 0.00600089 0 
0.0794083 0.0061247 0 
0.0872712 0.00620857 0 
0.0951353 0.00626311 0 
0.102995 0.0062968 0 
0.110847 0.00631621 0 
0.11869 0.00632634 0 
0.126526 0.00633087 0 
0.134355 0.0063324 0 
0.142179 0.00633266 0 
0.15 0.00633265 0 
0 0 0 
0.00595 0.000488586 0 
0.0122575 0.000961887 0 
0.0189053 0.00140132 0 
0.0258599 0.00179212 0 
0.033076 0.00212562 0 
0.0405034 0.00239957 0 
0.0480924 0.00261694 0 
0.0557985 0.002784 0 
0.0635844 0.0029086 0 
0.0714207 0.00299883 0 
0.0792854 0.00306216 0 
0.0871625 0.00310509 0 
0.0950418 0.00313301 0 
0.102916 0.00315026 0 
0.110783 0.00316018 0 
0.118641 0.00316534 0 
0.12649 0.00316764 0 
0.134331 0.0031684 0 
0.142167 0.00316852 0 
0.15 0.00316851 0 
0 0 0 
0.00594775 6.81353e-18 0 
0.0122494 1.63999e-17 0 
0.0188886 2.59497e-17 0 
0.0258335 3.98038e-17 0 
0.0330405 5.00901e-17 0 
0.0404608 6.0858e-17 0 
0.0480454 8.07172e-17 0 
0.0557499 1.00279e-16 0 
0.0635366 1.19215e-16 0 
0.0713756 1.4962e-16 0 
0.0792441 1.73167e-16 0 
0.087126 1.93764e-16 0 
0.0950102 2.12138e-16 0 
0.10289 2.22536e-16 0 
0.110762 2.15336e-16 0 
0.118624 2.08001e-16 0 
0.126477 1.99923e-16 0 
0.134323 2.0587e-16 0 
0.142163 2.08628e-16 0 
0.15 2.21475e-16 0 
0 0 0 
0.00595 -0.000488586 0 
0.0122575 -0.000961887 0 
0.0189053 -0.00140132 0 
0.0258599 -0.00179212 0 
0.033076 -0.00212562 0 
0.0405034 -0.00239957 0 
0.0480924 -0.00261694 0 
0.0557985 -0.002784 0 
0.0635844 -0.0029086 0 
0.0714207 -0.00299883 0 
0.0792854 -0.00306216 0 
0.0871625 -0.00310509 0 
0.0950418 -0.00313301 0 
0.102916 -0.00315026 0 
0.110783 -0.00316018 0 
0.118641 -0.00316534 0 
0.12649 -0.00316764 0 
0.134331 -0.0031684 0 
0.142167 -0.00316852 0 
0.15 -0.00316851 0 
0 0 0 
0.00595725 -0.000987409 0 
0.0122831 -0.00194341 0 
0.0189577 -0.00282861 0 
0.0259422 -0.0036124 0 
0.0331858 -0.00427779 0 
0.040634 -0.00482154 0 
0.0482354 -0.00525096 0 
0.0559455 -0.00557974 0 
0.0637282 -0.00582423 0 
0.0715559 -0.00600089 0 
0.0794083 -0.0061247 0 
0.0872712 -0.00620857 0 
0.0951353 -0.00626311 0 
0.102995 -0.0062968 0 
0.110847 -0.00631621 0 
0.11869 -0.00632634 0 
0.126526 -0.00633087 0 
0.134355 -0.0063324 0 
0.142179 -0.00633266 0 
0.15 -0.00633265 0 
0 0 0 
0.00597117 -0.00150796 0 
0.012331 -0.00296645 0 
0.0190538 -0.0043101 0 
0.0260906 -0.00549044 0 
0.0333801 -0.00648342 0 
0.0408614 -0.00728773 0 
0.0484807 -0.00791809 0 
0.0561943 -0.00839775 0 
0.0639689 -0.00875281 0 
0.0717801 -0.00900853 0 
0.0796107 -0.0091874 0 
0.087449 -0.00930846 0 
0.0952875 -0.0093872 0 
0.103122 -0.00943589 0 
0.11095 -0.00946404 0 
0.11877 -0.00947882 0 
0.126584 -0.0094855 0 
0.134393 -0.00948784 0 
0.142197 -0.0094883 0 
0.15 -0.0094883 0 
0 0 0 
0.00599523 -0.0020647 0 
0.0124107 -0.00405795 0 
0.0192095 -0.00587891 0 
0.0263242 -0.00745866 0 
0.0336776 -0.00876969 0 
0.0412006 -0.00981843 0 
0.0488381 -0.0106319 0 
0.0565496 -0.011246 0 
0.0643069 -0.011698 0 
0.0720906 -0.0120224 0 
0.0798877 -0.0122489 0 
0.0876899 -0.0124021 0 
0.0954921 -0.0125019 0 
0.103291 -0.0125638 0 
0.111086 -0.0125999 0 
0.118876 -0.012619 0 
0.126661 -0.0126278 0 
0.134443 -0.0126311 0 
0.142222 -0.0126319 0 
0.15 -0.0126319 0 
0 0 0 
0.00603629 -0.00267801 0 
0.0125408 -0.00525443 0 
0.0194539 -0.00757613 0 
0.0266755 -0.00955288 0 
0.0341071 -0.0111629 0 
0.0416723 -0.0124304 0 
0.0493195 -0.0134015 0 
0.0570156 -0.0141283 0 
0.0647404 -0.0146603 0 
0.0724814 -0.0150409 0 
0.080231 -0.0153063 0 
0.0879848 -0.0154862 0 
0.0957399 -0.0156037 0 
0.103495 -0.0156771 0 
0.111249 -0.0157203 0 
0.119001 -0.0157436 0 
0.126752 -0.0157548 0 
0.134502 -0.0157593 0 
0.142251 -0.0157606 0 
0.15 -0.0157609 0 
0 0 0 
0.00610847 -0.00338019 0 
0.0127586 -0.00660941 0 
0.0198397 -0.009454 0 
0.027197 -0.0118109 0 
0.0347088 -0.013685 0 
0.0423015 -0.0151335 0 
0.0499357 -0.0162294 0 
0.0575923 -0.0170429 0 
0.0652621 -0.0176358 0 
0.0729411 -0.0180594 0 
0.0806273 -0.0183553 0 
0.0883198 -0.0185565 0 
0.0960176 -0.018689 0 
0.10372 -0.0187726 0 
0.111427 -0.0188226 0 
0.119138 -0.0188505 0 
0.126851 -0.0188646 0 
0.134566 -0.0188708 0 
0.142283 -0.018873 0 
0.15 -0.0188735 0 
0 0 0 
0.00624432 -0.00422966 0 
0.0131442 -0.00820603 0 
0.0204636 -0.0115763 0 
0.0279677 -0.0142661 0 
0.0355326 -0.0163466 0 
0.0431109 -0.0179259 0 
0.0506901 -0.019108 0 
0.0582705 -0.0199809 0 
0.065856 -0.0206162 0 
0.0734504 -0.021071 0 
0.0810564 -0.0213902 0 
0.0886753 -0.0216089 0 
0.0963076 -0.0217545 0 
0.103952 -0.0218481 0 
0.111609 -0.0219055 0 
0.119275 -0.0219387 0 
0.126949 -0.0219565 0 
0.134629 -0.0219652 0 
0.142314 -0.0219688 0 
0.15 -0.0219698 0 
0 0 0 
0.00653463 -0.00534858 0 
0.0138849 -0.0101727 0 
0.0214957 -0.0140061 0 
0.0290913 -0.016931 0 
0.0366237 -0.019136 0 
0.0441079 -0.0207882 0 
0.0515682 -0.0220183 0 
0.0590248 -0.0229264 0 
0.0664921 -0.0235894 0 
0.0739788 -0.024067 0 
0.0814895 -0.0244051 0 
0.0890258 -0.0246397 0 
0.0965872 -0.0247986 0 
0.104172 -0.0249029 0 
0.111778 -0.0249689 0 
0.119401 -0.0250089 0 
0.127038 -0.0250317 0 
0.134686 -0.0250439 0 
0.142341 -0.0250496 0 
0.15 -0.0250512 0 
0 0 0 
0.00732441 -0.00702967 0 
0.0154326 -0.0126678 0 
0.0231795 -0.0167614 0 
0.0306555 -0.0197696 0 
0.0379883 -0.0220077 0 
0.0452611 -0.0236808 0 
0.0525239 -0.0249302 0 
0.0598059 -0.0258582 0 
0.0671231 -0.0265415 0 
0.0744833 -0.0270389 0 
0.0818888 -0.0273958 0 
0.0893386 -0.0276474 0 
0.0968295 -0.0278213 0 
0.104357 -0.0279385 0 
0.111916 -0.0280153 0 
0.119502 -0.0280639 0 
0.127108 -0.0280934 0 
0.13473 -0.0281102 0 
0.142363 -0.0281186 0 
0.15 -0.0281212 0 
0 0 0 
0.0105716 -0.00997638 0 
0.0184484 -0.0157284 0 
0.0256466 -0.0197268 0 
0.0326213 -0.0226694 0 
0.0395389 -0.0248789 0 
0.0464757 -0.026548 0 
0.0534689 -0.0278082 0 
0.0605356 -0.0287549 0 
0.0676821 -0.0294607 0 
0.0749076 -0.0299816 0 
0.0822077 -0.0303612 0 
0.0895757 -0.0306338 0 
0.0970036 -0.0308263 0 
0.104483 -0.0309597 0 
0.112006 -0.0310499 0 
0.119564 -0.0311093 0 
0.12715 -0.0311471 0 
0.134755 -0.0311697 0 
0.142374 -0.0311815 0 
0.15 -0.0311852 0 
CELL_DATA 400
TENSORS sigma float 
195.037 54.8012 0 54.8012 25.1017 0 0 0 56.9007 
170.793 24.8345 0 24.8345 7.47499 0 0 0 47.0037 
158.078 14.2538 0 14.2538 3.29965 0 0 0 42.9215 
152.061 9.11292 0 9.11292 1.76412 0 0 0 41.0722 
149.473 6.11352 0 6.11352 1.03621 0 0 0 40.2461 
148.714 4.17675 0 4.17675 0.636654 0 0 0 39.9439 
148.956 2.85363 0 2.85363 0.395957 0 0 0 39.9247 
149.739 1.92246 0 1.92246 0.24139 0 0 0 40.0588 
150.79 1.25902 0 1.25902 0.137539 0 0 0 40.2712 
151.94 0.786556 0 0.786556 0.0655402 0 0 0 40.5168 
153.088 0.453921 0 0.453921 0.0146054 0 0 0 40.7679 
154.17 0.225044 0 0.225044 -0.0218221 0 0 0 41.0081 
155.151 0.0734975 0 0.0734975 -0.0479536 0 0 0 41.2275 
156.01 -0.020551 0 -0.020551 -0.0666306 0 0 0 41.421 
156.74 -0.0721797 0 -0.0721797 -0.0798503 0 0 0 41.586 
157.34 -0.0929211 0 -0.0929211 -0.0890577 0 0 0 41.7221 
157.812 -0.0916232 0 -0.0916232 -0.0953119 0 0 0 41.8295 
158.161 -0.0751129 0 -0.0751129 -0.0993837 0 0 0 41.9089 
158.391 -0.0487388 0 -0.0487388 -0.101813 0 0 0 41.9613 
158.505 -0.0168387 0 -0.0168387 -0.102944 0 0 0 41.9873 
164.247 45.4846 0 45.4846 49.652 0 0 0 58.644 
166.988 33.8412 0 33.8412 20.9639 0 0 0 50.3875 
163.034 21.0726 0 21.0726 10.2076 0 0 0 46.2877 
158.94 13.0635 0 13.0635 5.64494 0 0 0 43.9591 
156.164 8.12871 0 8.12871 3.39971 0 0 0 42.6115 
154.614 4.98875 0 4.98875 2.154 0 0 0 41.8481 
153.95 2.93772 0 2.93772 1.39836 0 0 0 41.4432 
153.875 1.58196 0 1.58196 0.909301 0 0 0 41.2605 
154.165 0.6888 0 0.6888 0.577959 0 0 0 41.2147 
154.663 0.112238 0 0.112238 0.346543 0 0 0 41.2511 
155.263 -0.244118 0 -0.244118 0.181989 0 0 0 41.3336 
155.891 -0.446361 0 -0.446361 0.0640442 0 0 0 41.4387 
156.5 -0.540973 0 -0.540973 -0.0204878 0 0 0 41.5507 
157.059 -0.561089 0 -0.561089 -0.0806733 0 0 0 41.6597 
157.551 -0.530409 0 -0.530409 -0.123 0 0 0 41.7591 
157.966 -0.465803 0 -0.465803 -0.15223 0 0 0 41.8451 
158.299 -0.379144 0 -0.379144 -0.17189 0 0 0 41.9155 
158.549 -0.278663 0 -0.278663 -0.184558 0 0 0 41.9688 
158.715 -0.170008 0 -0.170008 -0.192047 0 0 0 42.0046 
158.797 -0.0571054 0 -0.0571054 -0.195511 0 0 0 42.0226 
153.513 36.2801 0 36.2801 52.5145 0 0 0 57.4825 
159.622 31.3084 0 31.3084 32.0559 0 0 0 52.5054 
161.465 22.8724 0 22.8724 18.5399 0 0 0 48.7198 
160.773 15.3839 0 15.3839 11.0725 0 0 0 46.2112 
159.455 9.88725 0 9.88725 6.89236 0 0 0 44.5643 
158.312 6.07157 0 6.07157 4.42221 0 0 0 43.4881 
157.55 3.47422 0 3.47422 2.87833 0 0 0 42.7937 
157.153 1.73081 0 1.73081 1.86743 0 0 0 42.357 
157.04 0.584135 0 0.584135 1.18238 0 0 0 42.0946 
157.124 -0.144428 0 -0.144428 0.707532 0 0 0 41.9492 
157.332 -0.579879 0 -0.579879 0.37435 0 0 0 41.8815 
157.608 -0.810722 0 -0.810722 0.139776 0 0 0 41.8636 
157.911 -0.900115 0 -0.900115 -0.0247097 0 0 0 41.8762 
158.21 -0.893203 0 -0.893203 -0.138859 0 0 0 41.9058 
158.487 -0.822089 0 -0.822089 -0.216811 0 0 0 41.9428 
158.728 -0.709319 0 -0.709319 -0.268893 0 0 0 41.9807 
158.927 -0.570424 0 -0.570424 -0.30268 0 0 0 42.0151 
159.079 -0.415843 0 -0.415843 -0.323661 0 0 0 42.043 
159.181 -0.252411 0 -0.252411 -0.33565 0 0 0 42.0625 
159.233 -0.0845771 0 -0.0845771 -0.34106 0 0 0 42.0725 
148.767 29.0963 0 29.0963 52.7766 0 0 0 56.7272 
154.819 26.5856 0 26.5856 37.4961 0 0 0 53.3499 
158.623 21.3373 0 21.3373 24.9767 0 0 0 50.277 
160.218 15.5663 0 15.5663 16.3474 0 0 0 47.8847 
160.502 10.5979 0 10.5979 10.7425 0 0 0 46.1259 
160.243 6.76917 0 6.76917 7.10724 0 0 0 44.8604 
159.858 3.98285 0 3.98285 4.70343 0 0 0 43.9607 
159.528 2.03063 0 2.03063 3.07716 0 0 0 43.3282 
159.306 0.710144 0 0.710144 1.95595 0 0 0 42.8896 
159.192 -0.14486 0 -0.14486 1.17348 0 0 0 42.5912 
159.165 -0.663059 0 -0.663059 0.624676 0 0 0 42.3933 
159.198 -0.941444 0 -0.941444 0.240476 0 0 0 42.2668 
159.27 -1.05201 0 -1.05201 -0.0263052 0 0 0 42.1901 
159.361 -1.04751 0 -1.04751 -0.20899 0 0 0 42.1474 
159.457 -0.965988 0 -0.965988 -0.331671 0 0 0 42.1269 
159.548 -0.834421 0 -0.834421 -0.411997 0 0 0 42.12 
159.627 -0.671464 0 -0.671464 -0.462901 0 0 0 42.1207 
159.689 -0.489676 0 -0.489676 -0.493711 0 0 0 42.1245 
159.732 -0.297282 0 -0.297282 -0.510885 0 0 0 42.1286 
159.754 -0.0996197 0 -0.0996197 -0.518491 0 0 0 42.131 
146.382 23.2527 0 23.2527 52.7301 0 0 0 56.3388 
151.91 21.7904 0 21.7904 40.3579 0 0 0 53.7504 
156.214 18.4439 0 18.4439 29.2945 0 0 0 51.2335 
158.955 14.2744 0 14.2744 20.6131 0 0 0 49.0662 
160.402 10.2436 0 10.2436 14.2787 0 0 0 47.322 
161.016 6.84175 0 6.84175 9.79306 0 0 0 45.9671 
161.174 4.19478 0 4.19478 6.63817 0 0 0 44.9354 
161.118 2.24754 0 2.24754 4.4136 0 0 0 44.1602 
160.981 0.88151 0 0.88151 2.83865 0 0 0 43.5843 
160.831 -0.0293769 0 -0.0293769 1.72179 0 0 0 43.1613 
160.696 -0.597047 0 -0.597047 0.931728 0 0 0 42.8543 
160.585 -0.913212 0 -0.913212 0.376843 0 0 0 42.6348 
160.499 -1.04969 0 -1.04969 -0.00821141 0 0 0 42.4804 
160.435 -1.06101 0 -1.06101 -0.270925 0 0 0 42.3739 
160.389 -0.987452 0 -0.987452 -0.446264 0 0 0 42.3021 
160.357 -0.858077 0 -0.858077 -0.560099 0 0 0 42.2551 
160.335 -0.693262 0 -0.693262 -0.631477 0 0 0 42.2252 
160.321 -0.506902 0 -0.506902 -0.674155 0 0 0 42.2072 
160.312 -0.308232 0 -0.308232 -0.697655 0 0 0 42.1971 
160.308 -0.103368 0 -0.103368 -0.70796 0 0 0 42.1926 
145.084 18.2377 0 18.2377 52.6736 0 0 0 56.1472 
150.131 17.3078 0 17.3078 42.0278 0 0 0 53.9878 
154.456 15.1105 0 15.1105 32.1422 0 0 0 51.8407 
157.702 12.171 0 12.171 23.7915 0 0 0 49.884 
159.863 9.09792 0 9.09792 17.1928 0 0 0 48.2072 
161.151 6.31662 0 6.31662 12.1834 0 0 0 46.8266 
161.826 4.02554 0 4.02554 8.46215 0 0 0 45.7189 
162.106 2.26269 0 2.26269 5.73018 0 0 0 44.8463 
162.151 0.981085 0 0.981085 3.74005 0 0 0 44.1683 
162.064 0.100454 0 0.100454 2.30112 0 0 0 43.6479 
161.911 -0.464464 0 -0.464464 1.27028 0 0 0 43.2529 
161.732 -0.790759 0 -0.790759 0.540645 0 0 0 42.9566 
161.55 -0.942614 0 -0.942614 0.0321538 0 0 0 42.7369 
161.38 -0.970743 0 -0.970743 -0.315394 0 0 0 42.5763 
161.23 -0.9137 0 -0.9137 -0.547336 0 0 0 42.4605 
161.102 -0.799844 0 -0.799844 -0.697698 0 0 0 42.3787 
160.999 -0.6494 0 -0.6494 -0.791737 0 0 0 42.3224 
160.923 -0.476375 0 -0.476375 -0.847778 0 0 0 42.2852 
160.871 -0.290246 0 -0.290246 -0.878524 0 0 0 42.2628 
160.846 -0.0974279 0 -0.0974279 -0.891969 0 0 0 42.2523 
144.344 13.7522 0 13.7522 52.6399 0 0 0 56.0558 
149.025 13.1412 0 13.1412 43.07 0 0 0 54.1481 
153.241 11.6885 0 11.6885 34.0274 0 0 0 52.2389 
156.684 9.66579 0 9.66579 26.059 0 0 0 50.4444 
159.25 7.44108 0 7.44108 19.4262 0 0 0 48.8426 
161 5.32397 0 5.32397 14.1301 0 0 0 47.4678 
162.087 3.50116 0 3.50116 10.0225 0 0 0 46.3214 
162.68 2.04575 0 2.04575 6.90185 0 0 0 45.386 
162.927 0.954746 0 0.954746 4.56921 0 0 0 44.636 
162.947 0.185071 0 0.185071 2.85076 0 0 0 44.043 