# vtk DataFile Version 2.0
Generated by inSilico's base::io::vtk::LegacyWriter
ASCII
DATASET UNSTRUCTURED_GRID
POINTS 441 float
0 0 0 
0.05 0 0 
0.1 0 0 
0.15 0 0 
0.2 0 0 
0.25 0 0 
0.3 0 0 
0.35 0 0 
0.4 0 0 
0.45 0 0 
0.5 0 0 
0.55 0 0 
0.6 0 0 
0.65 0 0 
0.7 0 0 
0.75 0 0 
0.8 0 0 
0.85 0 0 
0.9 0 0 
0.95 0 0 
1 0 0 
0 0.05 0 
0.05 0.05 0 
0.1 0.05 0 
0.15 0.05 0 
0.2 0.05 0 
0.25 0.05 0 
0.3 0.05 0 
0.35 0.05 0 
0.4 0.05 0 
0.45 0.05 0 
0.5 0.05 0 
0.55 0.05 0 
0.6 0.05 0 
0.65 0.05 0 
0.7 0.05 0 
0.75 0.05 0 
0.8 0.05 0 
0.85 0.05 0 
0.9 0.05 0 
0.95 0.05 0 
1 0.05 0 
0 0.1 0 
0.05 0.1 0 
0.1 0.1 0 
0.15 0.1 0 
0.2 0.1 0 
0.25 0.1 0 
0.3 0.1 0 
0.35 0.1 0 
0.4 0.1 0 
0.45 0.1 0 
0.5 0.1 0 
0.55 0.1 0 
0.6 0.1 0 
0.65 0.1 0 
0.7 0.1 0 
0.75 0.1 0 
0.8 0.1 0 
0.85 0.1 0 
0.9 0.1 0 
0.95 0.1 0 
1 0.1 0 
0 0.15 0 
0.05 0.15 0 
0.1 0.15 0 
0.15 0.15 0 
0.2 0.15 0 
0.25 0.15 0 
0.3 0.15 0 
0.35 0.15 0 
0.4 0.15 0 
0.45 0.15 0 
0.5 0.15 0 
0.55 0.15 0 
0.6 0.15 0 
0.65 0.15 0 
0.7 0.15 0 
0.75 0.15 0 
0.8 0.15 0 
0.85 0.15 0 
0.9 0.15 0 
0.95 0.15 0 
1 0.15 0 
0 0.2 0 
0.05 0.2 0 
0.1 0.2 0 
0.15 0.2 0 
0.2 0.2 0 
0.25 0.2 0 
0.3 0.2 0 
0.35 0.2 0 
0.4 0.2 0 
0.45 0.2 0 
0.5 0.2 0 
0.55 0.2 0 
0.6 0.2 0 
0.65 0.2 0 
0.7 0.2 0 
0.75 0.2 0 
0.8 0.2 0 
0.85 0.2 0 
0.9 0.2 0 
0.95 0.2 0 
1 0.2 0 
0 0.25 0 
0.05 0.25 0 
0.1 0.25 0 
0.15 0.25 0 
0.2 0.25 0 
0.25 0.25 0 
0.3 0.25 0 
0.35 0.25 0 
0.4 0.25 0 
0.45 0.25 0 
0.5 0.25 0 
0.55 0.25 0 
0.6 0.25 0 
0.65 0.25 0 
0.7 0.25 0 
0.75 0.25 0 
0.8 0.25 0 
0.85 0.25 0 
0.9 0.25 0 
0.95 0.25 0 
1 0.25 0 
0 0.3 0 
0.05 0.3 0 
0.1 0.3 0 
0.15 0.3 0 
0.2 0.3 0 
0.25 0.3 0 
0.3 0.3 0 
0.35 0.3 0 
0.4 0.3 0 
0.45 0.3 0 
0.5 0.3 0 
0.55 0.3 0 
0.6 0.3 0 
0.65 0.3 0 
0.7 0.3 0 
0.75 0.3 0 
0.8 0.3 0 
0.85 0.3 0 
0.9 0.3 0 
0.95 0.3 0 
1 0.3 0 
0 0.35 0 
0.05 0.35 0 
0.1 0.35 0 
0.15 0.35 0 
0.2 0.35 0 
0.25 0.35 0 
0.3 0.35 0 
0.35 0.35 0 
0.4 0.35 0 
0.45 0.35 0 
0.5 0.35 0 
0.55 0.35 0 
0.6 0.35 0 
0.65 0.35 0 
0.7 0.35 0 
0.75 0.35 0 
0.8 0.35 0 
0.85 0.35 0 
0.9 0.35 0 
0.95 0.35 0 
1 0.35 0 
0 0.4 0 
0.05 0.4 0 
0.1 0.4 0 
0.15 0.4 0 
0.2 0.4 0 
0.25 0.4 0 
0.3 0.4 0 
0.35 0.4 0 
0.4 0.4 0 
0.45 0.4 0 
0.5 0.4 0 
0.55 0.4 0 
0.6 0.4 0 
0.65 0.4 0 
0.7 0.4 0 
0.75 0.4 0 
0.8 0.4 0 
0.85 0.4 0 
0.9 0.4 0 
0.95 0.4 0 
1 0.4 0 
0 0.45 0 
0.05 0.45 0 
0.1 0.45 0 
0.15 0.45 0 
0.2 0.45 0 
0.25 0.45 0 
0.3 0.45 0 
0.35 0.45 0 
0.4 0.45 0 
0.45 0.45 0 
0.5 0.45 0 
0.55 0.45 0 
0.6 0.45 0 
0.65 0.45 0 
0.7 0.45 0 
0.75 0.45 0 
0.8 0.45 0 
0.85 0.45 0 
0.9 0.45 0 
0.95 0.45 0 
1 0.45 0 
0 0.5 0 
0.05 0.5 0 
0.1 0.5 0 
0.15 0.5 0 
0.2 0.5 0 
0.25 0.5 0 
0.3 0.5 0 
0.35 0.5 0 
0.4 0.5 0 
0.45 0.5 0 
0.5 0.5 0 
0.55 0.5 0 
0.6 0.5 0 
0.65 0.5 0 
0.7 0.5 0 
0.75 0.5 0 
0.8 0.5 0 
0.85 0.5 0 
0.9 0.5 0 
0.95 0.5 0 
1 0.5 0 
0 0.55 0 
0.05 0.55 0 
0.1 0.55 0 
0.15 0.55 0 
0.2 0.55 0 
0.25 0.55 0 
0.3 0.55 0 
0.35 0.55 0 
0.4 0.55 0 
0.45 0.55 0 
0.5 0.55 0 
0.55 0.55 0 
0.6 0.55 0 
0.65 0.55 0 
0.7 0.55 0 
0.75 0.55 0 
0.8 0.55 0 
0.85 0.55 0 
0.9 0.55 0 
0.95 0.55 0 
1 0.55 0 
0 0.6 0 
0.05 0.6 0 
0.1 0.6 0 
0.15 0.6 0 
0.2 0.6 0 
0.25 0.6 0 
0.3 0.6 0 
0.35 0.6 0 
0.4 0.6 0 
0.45 0.6 0 
0.5 0.6 0 
0.55 0.6 0 
0.6 0.6 0 
0.65 0.6 0 
0.7 0.6 0 
0.75 0.6 0 
0.8 0.6 0 
0.85 0.6 0 
0.9 0.6 0 
0.95 0.6 0 
1 0.6 0 
0 0.65 0 
0.05 0.65 0 
0.1 0.65 0 
0.15 0.65 0 
0.2 0.65 0 
0.25 0.65 0 
0.3 0.65 0 
0.35 0.65 0 
0.4 0.65 0 
0.45 0.65 0 
0.5 0.65 0 
0.55 0.65 0 
0.6 0.65 0 
0.65 0.65 0 
0.7 0.65 0 
0.75 0.65 0 
0.8 0.65 0 
0.85 0.65 0 
0.9 0.65 0 
0.95 0.65 0 
1 0.65 0 
0 0.7 0 
0.05 0.7 0 
0.1 0.7 0 
0.15 0.7 0 
0.2 0.7 0 
0.25 0.7 0 
0.3 0.7 0 
0.35 0.7 0 
0.4 0.7 0 
0.45 0.7 0 
0.5 0.7 0 
0.55 0.7 0 
0.6 0.7 0 
0.65 0.7 0 
0.7 0.7 0 
0.75 0.7 0 
0.8 0.7 0 
0.85 0.7 0 
0.9 0.7 0 
0.95 0.7 0 
1 0.7 0 
0 0.75 0 
0.05 0.75 0 
0.1 0.75 0 
0.15 0.75 0 
0.2 0.75 0 
0.25 0.75 0 
0.3 0.75 0 
0.35 0.75 0 
0.4 0.75 0 
0.45 0.75 0 
0.5 0.75 0 
0.55 0.75 0 
0.6 0.75 0 
0.65 0.75 0 
0.7 0.75 0 
0.75 0.75 0 
0.8 0.75 0 
0.85 0.75 0 
0.9 0.75 0 
0.95 0.75 0 
1 0.75 0 
0 0.8 0 
0.05 0.8 0 
0.1 0.8 0 
0.15 0.8 0 
0.2 0.8 0 
0.25 0.8 0 
0.3 0.8 0 
0.35 0.8 0 
0.4 0.8 0 
0.45 0.8 0 
0.5 0.8 0 
0.55 0.8 0 
0.6 0.8 0 
0.65 0.8 0 
0.7 0.8 0 
0.75 0.8 0 
0.8 0.8 0 
0.85 0.8 0 
0.9 0.8 0 
0.95 0.8 0 
1 0.8 0 
0 0.85 0 
0.05 0.85 0 
0.1 0.85 0 
0.15 0.85 0 
0.2 0.85 0 
0.25 0.85 0 
0.3 0.85 0 
0.35 0.85 0 
0.4 0.85 0 
0.45 0.85 0 
0.5 0.85 0 
0.55 0.85 0 
0.6 0.85 0 
0.65 0.85 0 
0.7 0.85 0 
0.75 0.85 0 
0.8 0.85 0 
0.85 0.85 0 
0.9 0.85 0 
0.95 0.85 0 
1 0.85 0 
0 0.9 0 
0.05 0.9 0 
0.1 0.9 0 
0.15 0.9 0 
0.2 0.9 0 
0.25 0.9 0 
0.3 0.9 0 
0.35 0.9 0 
0.4 0.9 0 
0.45 0.9 0 
0.5 0.9 0 
0.55 0.9 0 
0.6 0.9 0 
0.65 0.9 0 
0.7 0.9 0 
0.75 0.9 0 
0.8 0.9 0 
0.85 0.9 0 
0.9 0.9 0 
0.95 0.9 0 
1 0.9 0 
0 0.95 0 
0.05 0.95 0 
0.1 0.95 0 
0.15 0.95 0 
0.2 0.95 0 
0.25 0.95 0 
0.3 0.95 0 
0.35 0.95 0 
0.4 0.95 0 
0.45 0.95 0 
0.5 0.95 0 
0.55 0.95 0 
0.6 0.95 0 
0.65 0.95 0 
0.7 0.95 0 
0.75 0.95 0 
0.8 0.95 0 
0.85 0.95 0 
0.9 0.95 0 
0.95 0.95 0 
1 0.95 0 
0 1 0 
0.05 1 0 
0.1 1 0 
0.15 1 0 
0.2 1 0 
0.25 1 0 
0.3 1 0 
0.35 1 0 
0.4 1 0 
0.45 1 0 
0.5 1 0 
0.55 1 0 
0.6 1 0 
0.65 1 0 
0.7 1 0 
0.75 1 0 
0.8 1 0 
0.85 1 0 
0.9 1 0 
0.95 1 0 
1 1 0 
CELLS 400 2000
4 0 1 22 21 
4 1 2 23 22 
4 2 3 24 23 
4 3 4 25 24 
4 4 5 26 25 
4 5 6 27 26 
4 6 7 28 27 
4 7 8 29 28 
4 8 9 30 29 
4 9 10 31 30 
4 10 11 32 31 
4 11 12 33 32 
4 12 13 34 33 
4 13 14 35 34 
4 14 15 36 35 
4 15 16 37 36 
4 16 17 38 37 
4 17 18 39 38 
4 18 19 40 39 
4 19 20 41 40 
4 21 22 43 42 
4 22 23 44 43 
4 23 24 45 44 
4 24 25 46 45 
4 25 26 47 46 
4 26 27 48 47 
4 27 28 49 48 
4 28 29 50 49 
4 29 30 51 50 
4 30 31 52 51 
4 31 32 53 52 
4 32 33 54 53 
4 33 34 55 54 
4 34 35 56 55 
4 35 36 57 56 
4 36 37 58 57 
4 37 38 59 58 
4 38 39 60 59 
4 39 40 61 60 
4 40 41 62 61 
4 42 43 64 63 
4 43 44 65 64 
4 44 45 66 65 
4 45 46 67 66 
4 46 47 68 67 
4 47 48 69 68 
4 48 49 70 69 
4 49 50 71 70 
4 50 51 72 71 
4 51 52 73 72 
4 52 53 74 73 
4 53 54 75 74 
4 54 55 76 75 
4 55 56 77 76 
4 56 57 78 77 
4 57 58 79 78 
4 58 59 80 79 
4 59 60 81 80 
4 60 61 82 81 
4 61 62 83 82 
4 63 64 85 84 
4 64 65 86 85 
4 65 66 87 86 
4 66 67 88 87 
4 67 68 89 88 
4 68 69 90 89 
4 69 70 91 90 
4 70 71 92 91 
4 71 72 93 92 
4 72 73 94 93 
4 73 74 95 94 
4 74 75 96 95 
4 75 76 97 96 
4 76 77 98 97 
4 77 78 99 98 
4 78 79 100 99 
4 79 80 101 100 
4 80 81 102 101 
4 81 82 103 102 
4 82 83 104 103 
4 84 85 106 105 
4 85 86 107 106 
4 86 87 108 107 
4 87 88 109 108 
4 88 89 110 109 
4 89 90 111 110 
4 90 91 112 111 
4 91 92 113 112 
4 92 93 114 113 
4 93 94 115 114 
4 94 95 116 115 
4 95 96 117 116 
4 96 97 118 117 
4 97 98 119 118 
4 98 99 120 119 
4 99 100 121 120 
4 100 101 122 121 
4 101 102 123 122 
4 102 103 124 123 
4 103 104 125 124 
4 105 106 127 126 
4 106 107 128 127 
4 107 108 129 128 
4 108 109 130 129 
4 109 110 131 130 
4 110 111 132 131 
4 111 112 133 132 
4 112 113 134 133 
4 113 114 135 134 
4 114 115 136 135 
4 115 116 137 136 
4 116 117 138 137 
4 117 118 139 138 
4 118 119 140 139 
4 119 120 141 140 
4 120 121 142 141 
4 121 122 143 142 
4 122 123 144 143 
4 123 124 145 144 
4 124 125 146 145 
4 126 127 148 147 
4 127 128 149 148 
4 128 129 150 149 
4 129 130 151 150 
4 130 131 152 151 
4 131 132 153 152 
4 132 133 154 153 
4 133 134 155 154 
4 134 135 156 155 
4 135 136 157 156 
4 136 137 158 157 
4 137 138 159 158 
4 138 139 160 159 
4 139 140 161 160 
4 140 141 162 161 
4 141 142 163 162 
4 142 143 164 163 
4 143 144 165 164 
4 144 145 166 165 
4 145 146 167 166 
4 147 148 169 168 
4 148 149 170 169 
4 149 150 171 170 
4 150 151 172 171 
4 151 152 173 172 
4 152 153 174 173 
4 153 154 175 174 
4 154 155 176 175 
4 155 156 177 176 
4 156 157 178 177 
4 157 158 179 178 
4 158 159 180 179 
4 159 160 181 180 
4 160 161 182 181 
4 161 162 183 182 
4 162 163 184 183 
4 163 164 185 184 
4 164 165 186 185 
4 165 166 187 186 
4 166 167 188 187 
4 168 169 190 189 
4 169 170 191 190 
4 170 171 192 191 
4 171 172 193 192 
4 172 173 194 193 
4 173 174 195 194 
4 174 175 196 195 
4 175 176 197 196 
4 176 177 198 197 
4 177 178 199 198 
4 178 179 200 199 
4 179 180 201 200 
4 180 181 202 201 
4 181 182 203 202 
4 182 183 204 203 
4 183 184 205 204 
4 184 185 206 205 
4 185 186 207 206 
4 186 187 208 207 
4 187 188 209 208 
4 189 190 211 210 
4 190 191 212 211 
4 191 192 213 212 
4 192 193 214 213 
4 193 194 215 214 
4 194 195 216 215 
4 195 196 217 216 
4 196 197 218 217 
4 197 198 219 218 
4 198 199 220 219 
4 199 200 221 220 
4 200 201 222 221 
4 201 202 223 222 
4 202 203 224 223 
4 203 204 225 224 
4 204 205 226 225 
4 205 206 227 226 
4 206 207 228 227 
4 207 208 229 228 
4 208 209 230 229 
4 210 211 232 231 
4 211 212 233 232 
4 212 213 234 233 
4 213 214 235 234 
4 214 215 236 235 
4 215 216 237 236 
4 216 217 238 237 
4 217 218 239 238 
4 218 219 240 239 
4 219 220 241 240 
4 220 221 242 241 
4 221 222 243 242 
4 222 223 244 243 
4 223 224 245 244 
4 224 225 246 245 
4 225 226 247 246 
4 226 227 248 247 
4 227 228 249 248 
4 228 229 250 249 
4 229 230 251 250 
4 231 232 253 252 
4 232 233 254 253 
4 233 234 255 254 
4 234 235 256 255 
4 235 236 257 256 
4 236 237 258 257 
4 237 238 259 258 
4 238 239 260 259 
4 239 240 261 260 
4 240 241 262 261 
4 241 242 263 262 
4 242 243 264 263 
4 243 244 265 264 
4 244 245 266 265 
4 245 246 267 266 
4 246 247 268 267 
4 247 248 269 268 
4 248 249 270 269 
4 249 250 271 270 
4 250 251 272 271 
4 252 253 274 273 
4 253 254 275 274 
4 254 255 276 275 
4 255 256 277 276 
4 256 257 278 277 
4 257 258 279 278 
4 258 259 280 279 
4 259 260 281 280 
4 260 261 282 281 
4 261 262 283 282 
4 262 263 284 283 
4 263 264 285 284 
4 264 265 286 285 
4 265 266 287 286 
4 266 267 288 287 
4 267 268 289 288 
4 268 269 290 289 
4 269 270 291 290 
4 270 271 292 291 
4 271 272 293 292 
4 273 274 295 294 
4 274 275 296 295 
4 275 276 297 296 
4 276 277 298 297 
4 277 278 299 298 
4 278 279 300 299 
4 279 280 301 300 
4 280 281 302 301 
4 281 282 303 302 
4 282 283 304 303 
4 283 284 305 304 
4 284 285 306 305 
4 285 286 307 306 
4 286 287 308 307 
4 287 288 309 308 
4 288 289 310 309 
4 289 290 311 310 
4 290 291 312 311 
4 291 292 313 312 
4 292 293 314 313 
4 294 295 316 315 
4 295 296 317 316 
4 296 297 318 317 
4 297 298 319 318 
4 298 299 320 319 
4 299 300 321 320 
4 300 301 322 321 
4 301 302 323 322 
4 302 303 324 323 
4 303 304 325 324 
4 304 305 326 325 
4 305 306 327 326 
4 306 307 328 327 
4 307 308 329 328 
4 308 309 330 329 
4 309 310 331 330 
4 310 311 332 331 
4 311 312 333 332 
4 312 313 334 333 
4 313 314 335 334 
4 315 316 337 336 
4 316 317 338 337 
4 317 318 339 338 
4 318 319 340 339 
4 319 320 341 340 
4 320 321 342 341 
4 321 322 343 342 
4 322 323 344 343 
4 323 324 345 344 
4 324 325 346 345 
4 325 326 347 346 
4 326 327 348 347 
4 327 328 349 348 
4 328 329 350 349 
4 329 330 351 350 
4 330 331 352 351 
4 331 332 353 352 
4 332 333 354 353 
4 333 334 355 354 
4 334 335 356 355 
4 336 337 358 357 
4 337 338 359 358 
4 338 339 360 359 
4 339 340 361 360 
4 340 341 362 361 
4 341 342 363 362 
4 342 343 364 363 
4 343 344 365 364 
4 344 345 366 365 
4 345 346 367 366 
4 346 347 368 367 
4 347 348 369 368 
4 348 349 370 369 
4 349 350 371 370 
4 350 351 372 371 
4 351 352 373 372 
4 352 353 374 373 
4 353 354 375 374 
4 354 355 376 375 
4 355 356 377 376 
4 357 358 379 378 
4 358 359 380 379 
4 359 360 381 380 
4 360 361 382 381 
4 361 362 383 382 
4 362 363 384 383 
4 363 364 385 384 
4 364 365 386 385 
4 365 366 387 386 
4 366 367 388 387 
4 367 368 389 388 
4 368 369 390 389 
4 369 370 391 390 
4 370 371 392 391 
4 371 372 393 392 
4 372 373 394 393 
4 373 374 395 394 
4 374 375 396 395 
4 375 376 397 396 
4 376 377 398 397 
4 378 379 400 399 
4 379 380 401 400 
4 380 381 402 401 
4 381 382 403 402 
4 382 383 404 403 
4 383 384 405 404 
4 384 385 406 405 
4 385 386 407 406 
4 386 387 408 407 
4 387 388 409 408 
4 388 389 410 409 
4 389 390 411 410 
4 390 391 412 411 
4 391 392 413 412 
4 392 393 414 413 
4 393 394 415 414 
4 394 395 416 415 
4 395 396 417 416 
4 396 397 418 417 
4 397 398 419 418 
4 399 400 421 420 
4 400 401 422 421 
4 401 402 423 422 
4 402 403 424 423 
4 403 404 425 424 
4 404 405 426 425 
4 405 406 427 426 
4 406 407 428 427 
4 407 408 429 428 
4 408 409 430 429 
4 409 410 431 430 
4 410 411 432 431 
4 411 412 433 432 
4 412 413 434 433 
4 413 414 435 434 
4 414 415 436 435 
4 415 416 437 436 
4 416 417 438 437 
4 417 418 439 438 
4 418 419 440 439 
CELL_TYPES 400
9
9
9
9
9
9
9
9
9
9
9
9
9
9
9
9
9
9
9
9
9
9
9
9
9
9
9
9
9
9
9
9
9
9
9
9
9
9
9
9
9
9
9
9
9
9
9
9
9
9
9
9
9
9
9
9
9
9
9
9
9
9
9
9
9
9
9
9
9
9
9
9
9
9
9
9
9
9
9
9
9
9
9
9
9
9
9
9
9
9
9
9
9
9
9
9
9
9
9
9
9
9
9
9
9
9
9
9
9
9
9
9
9
9
9
9
9
9
9
9
9
9
9
9
9
9
9
9
9
9
9
9
9
9
9
9
9
9
9
9
9
9
9
9
9
9
9
9
9
9
9
9
9
9
9
9
9
9
9
9
9
9
9
9
9
9
9
9
9
9
9
9
9
9
9
9
9
9
9
9
9
9
9
9
9
9
9
9
9
9
9
9
9
9
9
9
9
9
9
9
9
9
9
9
9
9
9
9
9
9
9
9
9
9
9
9
9
9
9
9
9
9
9
9
9
9
9
9
9
9
9
9
9
9
9
9
9
9
9
9
9
9
9
9
9
9
9
9
9
9
9
9
9
9
9
9
9
9
9
9
9
9
9
9
9
9
9
9
9
9
9
9
9
9
9
9
9
9
9
9
9
9
9
9
9
9
9
9
9
9
9
9
9
9
9
9
9
9
9
9
9
9
9
9
9
9
9
9
9
9
9
9
9
9
9
9
9
9
9
9
9
9
9
9
9
9
9
9
9
9
9
9
9
9
9
9
9
9
9
9
9
9
9
9
9
9
9
9
9
9
9
9
9
9
9
9
9
9
9
9
9
9
9
9
9
9
9
9
9
9
9
9
9
9
9
9
9
9
9
9
9
9
9
9
9
9
9
9
9
9
9
9
9
9
9
9
9
9
9
9
POINT_DATA 441
VECTORS disp float 
0 0 0 
0.0236232 0.023269 0 
0.0425204 0.036384 0 
0.06035 0.0453912 0 
0.0778946 0.0519564 0 
0.0954332 0.0568457 0 
0.113087 0.0605139 0 
0.130909 0.0632677 0 
0.148918 0.0653286 0 
0.167115 0.0668623 0 
0.185488 0.0679953 0 
0.204022 0.0688247 0 
0.222697 0.0694258 0 
0.241493 0.0698564 0 
0.260391 0.0701608 0 
0.279373 0.0703725 0 
0.298423 0.0705169 0 
0.317524 0.0706122 0 
0.336662 0.0706718 0 
0.355825 0.0707042 0 
0.375 0.0707145 0 
0 0 0 
0.0178863 0.0167557 0 
0.0372097 0.0294927 0 
0.0560287 0.0386296 0 
0.0744746 0.0452942 0 
0.0927549 0.0502207 0 
0.111004 0.053883 0 
0.129298 0.0566063 0 
0.147681 0.0586245 0 
0.16617 0.0601111 0 
0.184772 0.0611975 0 
0.203482 0.0619837 0 
0.222294 0.0625462 0 
0.241195 0.0629435 0 
0.260174 0.0632199 0 
0.279217 0.0634088 0 
0.298313 0.0635351 0 
0.31745 0.063617 0 
0.336617 0.0636671 0 
0.355804 0.063694 0 
0.375 0.0637025 0 
0 0 0 
0.0163301 0.0128122 0 
0.0343752 0.0238748 0 
0.0529986 0.0324443 0 
0.0716889 0.0388937 0 
0.0903457 0.0437122 0 
0.108984 0.0472993 0 
0.127637 0.0499581 0 
0.146333 0.051917 0 
0.165088 0.053349 0 
0.183912 0.0543859 0 
0.202805 0.0551283 0 
0.221765 0.055653 0 
0.240787 0.0560184 0 
0.259862 0.0562684 0 
0.278984 0.056436 0 
0.298143 0.0565457 0 
0.317332 0.0566152 0 
0.336542 0.0566567 0 
0.355768 0.0566786 0 
0.375 0.0566854 0 
0 0 0 
0.015735 0.0101322 0 
0.032945 0.0193454 0 
0.0510706 0.0269421 0 
0.0696282 0.0328875 0 
0.0883706 0.0374226 0 
0.107199 0.0408314 0 
0.126081 0.0433654 0 
0.145009 0.0452298 0 
0.163982 0.046587 0 
0.183001 0.0475635 0 
0.202065 0.0482567 0 
0.221171 0.0487414 0 
0.240316 0.0490746 0 
0.259495 0.0492991 0 
0.278702 0.0494468 0 
0.297934 0.0495413 0 
0.317184 0.0495996 0 
0.336449 0.0496337 0 
0.355722 0.0496512 0 
0.375 0.0496565 0 
0 0 0 
0.0154589 0.00808687 0 
0.032177 0.0156147 0 
0.0498633 0.0220774 0 
0.06817 0.0273156 0 
0.0868392 0.0314076 0 
0.105716 0.0345272 0 
0.124717 0.0368632 0 
0.143798 0.0385863 0 
0.162935 0.0398393 0 
0.182113 0.0407374 0 
0.201325 0.0413713 0 
0.220565 0.0418109 0 
0.239826 0.0421098 0 
0.259106 0.0423084 0 
0.278401 0.042437 0 
0.297708 0.0425175 0 
0.317023 0.042566 0 
0.336345 0.0425935 0 
0.355672 0.0426073 0 
0.375 0.0426114 0 
0 0 0 
0.0153165 0.00639756 0 
0.0317375 0.0124248 0 
0.0490973 0.0177316 0 
0.0671562 0.0221501 0 
0.0856919 0.025678 0 
0.104538 0.0284089 0 
0.123582 0.0304734 0 
0.142752 0.0320038 0 
0.162002 0.0331182 0 
0.181303 0.033916 0 
0.200636 0.0344769 0 
0.219989 0.0348637 0 
0.239355 0.0351245 0 
0.258728 0.035296 0 
0.278104 0.0354053 0 
0.297483 0.0354726 0 
0.316862 0.0355122 0 
0.336242 0.035534 0 
0.355621 0.0355447 0 
0.375 0.0355479 0 
0 0 0 
0.0152388 0.00492604 0 
0.0314747 0.00959849 0 
0.0486044 0.0137788 0 
0.0664585 0.0173271 0 
0.0848554 0.0202109 0 
0.103637 0.0224745 0 
0.122679 0.0242024 0 
0.141894 0.0254909 0 
0.161217 0.0264319 0 
0.180607 0.0271057 0 
0.200034 0.0275786 0 
0.21948 0.0279035 0 
0.238932 0.0281213 0 
0.258385 0.0282632 0 
0.277833 0.0283528 0 
0.297276 0.028407 0 
0.316713 0.0284383 0 
0.336145 0.0284552 0 
0.355574 0.0284633 0 
0.375 0.0284656 0 
0 0 0 
0.0151952 0.00359409 0 
0.0313146 0.00701701 0 
0.0482873 0.0101107 0 
0.0659877 0.0127717 0 
0.0842662 0.0149632 0 
0.102978 0.0167029 0 
0.121999 0.0180423 0 
0.141231 0.0190467 0 
0.160598 0.0197827 0 
0.180049 0.0203103 0 
0.199544 0.0206804 0 
0.219061 0.020934 0 
0.238582 0.0211034 0 
0.258098 0.0212132 0 
0.277605 0.0212819 0 
0.297101 0.021323 0 
0.316587 0.0213464 0 
0.336063 0.0213588 0 
0.355533 0.0213645 0 
0.375 0.0213662 0 
0 0 0 
0.015171 0.0023517 0 
0.031219 0.00459685 0 
0.0480906 0.00663878 0 
0.0656856 0.00841031 0 
0.0838767 0.00988253 0 
0.102531 0.0110608 0 
0.121527 0.0119738 0 
0.140762 0.0126616 0 
0.160154 0.0131671 0 
0.179642 0.01353 0 
0.199184 0.0137845 0 
0.21875 0.0139587 0 
0.23832 0.0140748 0 
0.257883 0.0141498 0 
0.277433 0.0141964 0 
0.296969 0.0142241 0 
0.316491 0.0142397 0 
0.336001 0.0142478 0 
0.355503 0.0142515 0 
0.375 0.0142526 0 
0 0 0 
0.0151589 0.00116316 0 
0.0311681 0.00227507 0 
0.0479831 0.0032898 0 
0.065517 0.00417441 0 
0.083655 0.00491343 0 
0.102272 0.00550777 0 
0.12125 0.00597013 0 
0.140483 0.00631953 0 
0.159887 0.00657679 0 
0.179396 0.00676165 0 
0.198965 0.00689135 0 
0.218559 0.00698008 0 
0.238158 0.00703913 0 
0.25775 0.00707718 0 
0.277326 0.00710077 0 
0.296887 0.00711473 0 
0.316431 0.00712252 0 
0.335962 0.00712655 0 
0.355483 0.00712839 0 
0.375 0.0071289 0 
0 0 0 
0.0151552 7.00581e-18 0 
0.0311521 1.07666e-17 0 
0.0479489 1.53923e-17 0 
0.0654627 2.02407e-17 0 
0.083583 1.90887e-17 0 
0.102188 2.07218e-17 0 
0.121158 3.83011e-17 0 
0.14039 4.34054e-17 0 
0.159798 5.41356e-17 0 
0.179314 5.82047e-17 0 
0.198891 6.49166e-17 0 
0.218495 8.05054e-17 0 
0.238104 7.89096e-17 0 
0.257704 9.2906e-17 0 
0.27729 8.19047e-17 0 
0.296859 9.66227e-17 0 
0.316411 6.41424e-17 0 
0.335949 6.63201e-17 0 
0.355477 6.7783e-17 0 
0.375 9.20217e-17 0 
0 0 0 
0.0151589 -0.00116316 0 
0.0311681 -0.00227507 0 
0.0479831 -0.0032898 0 
0.065517 -0.00417441 0 
0.083655 -0.00491343 0 
0.102272 -0.00550777 0 
0.12125 -0.00597013 0 
0.140483 -0.00631953 0 
0.159887 -0.00657679 0 
0.179396 -0.00676165 0 
0.198965 -0.00689135 0 
0.218559 -0.00698008 0 
0.238158 -0.00703913 0 
0.25775 -0.00707718 0 
0.277326 -0.00710077 0 
0.296887 -0.00711473 0 
0.316431 -0.00712252 0 
0.335962 -0.00712655 0 
0.355483 -0.00712839 0 
0.375 -0.0071289 0 
0 0 0 
0.015171 -0.0023517 0 
0.031219 -0.00459685 0 
0.0480906 -0.00663878 0 
0.0656856 -0.00841031 0 
0.0838767 -0.00988253 0 
0.102531 -0.0110608 0 
0.121527 -0.0119738 0 
0.140762 -0.0126616 0 
0.160154 -0.0131671 0 
0.179642 -0.01353 0 
0.199184 -0.0137845 0 
0.21875 -0.0139587 0 
0.23832 -0.0140748 0 
0.257883 -0.0141498 0 
0.277433 -0.0141964 0 
0.296969 -0.0142241 0 
0.316491 -0.0142397 0 
0.336001 -0.0142478 0 
0.355503 -0.0142515 0 
0.375 -0.0142526 0 
0 0 0 
0.0151952 -0.00359409 0 
0.0313146 -0.00701701 0 
0.0482873 -0.0101107 0 
0.0659877 -0.0127717 0 
0.0842662 -0.0149632 0 
0.102978 -0.0167029 0 
0.121999 -0.0180423 0 
0.141231 -0.0190467 0 
0.160598 -0.0197827 0 
0.180049 -0.0203103 0 
0.199544 -0.0206804 0 
0.219061 -0.020934 0 
0.238582 -0.0211034 0 
0.258098 -0.0212132 0 
0.277605 -0.0212819 0 
0.297101 -0.021323 0 
0.316587 -0.0213464 0 
0.336063 -0.0213588 0 
0.355533 -0.0213645 0 
0.375 -0.0213662 0 
0 0 0 
0.0152388 -0.00492604 0 
0.0314747 -0.00959849 0 
0.0486044 -0.0137788 0 
0.0664585 -0.0173271 0 
0.0848554 -0.0202109 0 
0.103637 -0.0224745 0 
0.122679 -0.0242024 0 
0.141894 -0.0254909 0 
0.161217 -0.0264319 0 
0.180607 -0.0271057 0 
0.200034 -0.0275786 0 
0.21948 -0.0279035 0 
0.238932 -0.0281213 0 
0.258385 -0.0282632 0 
0.277833 -0.0283528 0 
0.297276 -0.028407 0 
0.316713 -0.0284383 0 
0.336145 -0.0284552 0 
0.355574 -0.0284633 0 
0.375 -0.0284656 0 
0 0 0 
0.0153165 -0.00639756 0 
0.0317375 -0.0124248 0 
0.0490973 -0.0177316 0 
0.0671562 -0.0221501 0 
0.0856919 -0.025678 0 
0.104538 -0.0284089 0 
0.123582 -0.0304734 0 
0.142752 -0.0320038 0 
0.162002 -0.0331182 0 
0.181303 -0.033916 0 
0.200636 -0.0344769 0 
0.219989 -0.0348637 0 
0.239355 -0.0351245 0 
0.258728 -0.035296 0 
0.278104 -0.0354053 0 
0.297483 -0.0354726 0 
0.316862 -0.0355122 0 
0.336242 -0.035534 0 
0.355621 -0.0355447 0 
0.375 -0.0355479 0 
0 0 0 
0.0154589 -0.00808687 0 
0.032177 -0.0156147 0 
0.0498633 -0.0220774 0 
0.06817 -0.0273156 0 
0.0868392 -0.0314076 0 
0.105716 -0.0345272 0 
0.124717 -0.0368632 0 
0.143798 -0.0385863 0 
0.162935 -0.0398393 0 
0.182113 -0.0407374 0 
0.201325 -0.0413713 0 
0.220565 -0.0418109 0 
0.239826 -0.0421098 0 
0.259106 -0.0423084 0 
0.278401 -0.042437 0 
0.297708 -0.0425175 0 
0.317023 -0.042566 0 
0.336345 -0.0425935 0 
0.355672 -0.0426073 0 
0.375 -0.0426114 0 
0 0 0 
0.015735 -0.0101322 0 
0.032945 -0.0193454 0 
0.0510706 -0.0269421 0 
0.0696282 -0.0328875 0 
0.0883706 -0.0374226 0 
0.107199 -0.0408314 0 
0.126081 -0.0433654 0 
0.145009 -0.0452298 0 
0.163982 -0.046587 0 
0.183001 -0.0475635 0 
0.202065 -0.0482567 0 
0.221171 -0.0487414 0 
0.240316 -0.0490746 0 
0.259495 -0.0492991 0 
0.278702 -0.0494468 0 
0.297934 -0.0495413 0 
0.317184 -0.0495996 0 
0.336449 -0.0496337 0 
0.355722 -0.0496512 0 
0.375 -0.0496565 0 
0 0 0 
0.0163301 -0.0128122 0 
0.0343752 -0.0238748 0 
0.0529986 -0.0324443 0 
0.0716889 -0.0388937 0 
0.0903457 -0.0437122 0 
0.108984 -0.0472993 0 
0.127637 -0.0499581 0 
0.146333 -0.051917 0 
0.165088 -0.053349 0 
0.183912 -0.0543859 0 
0.202805 -0.0551283 0 
0.221765 -0.055653 0 
0.240787 -0.0560184 0 
0.259862 -0.0562684 0 
0.278984 -0.056436 0 
0.298143 -0.0565457 0 
0.317332 -0.0566152 0 
0.336542 -0.0566567 0 
0.355768 -0.0566786 0 
0.375 -0.0566854 0 
0 0 0 
0.0178863 -0.0167557 0 
0.0372097 -0.0294927 0 
0.0560287 -0.0386296 0 
0.0744746 -0.0452942 0 
0.0927549 -0.0502207 0 
0.111004 -0.053883 0 
0.129298 -0.0566063 0 
0.147681 -0.0586245 0 
0.16617 -0.0601111 0 
0.184772 -0.0611975 0 
0.203482 -0.0619837 0 
0.222294 -0.0625462 0 
0.241195 -0.0629435 0 
0.260174 -0.0632199 0 
0.279217 -0.0634088 0 
0.298313 -0.0635351 0 
0.31745 -0.063617 0 
0.336617 -0.0636671 0 
0.355804 -0.063694 0 
0.375 -0.0637025 0 
0 0 0 
0.0236232 -0.023269 0 
0.0425204 -0.036384 0 
0.06035 -0.0453912 0 
0.0778946 -0.0519564 0 
0.0954332 -0.0568457 0 
0.113087 -0.0605139 0 
0.130909 -0.0632677 0 
0.148918 -0.0653286 0 
0.167115 -0.0668623 0 
0.185488 -0.0679953 0 
0.204022 -0.0688247 0 
0.222697 -0.0694258 0 
0.241493 -0.0698564 0 
0.260391 -0.0701608 0 
0.279373 -0.0703725 0 
0.298423 -0.0705169 0 
0.317524 -0.0706122 0 
0.336662 -0.0706718 0 
0.355825 -0.0707042 0 
0.375 -0.0707145 0 
CELL_DATA 400
TENSORS sigma float 
417.273 155.45 0 155.45 78.5916 0 0 0 105.439 
386.474 82.3088 0 82.3088 26.1583 0 0 0 91.2556 
368.457 52.3148 0 52.3148 12.4638 0 0 0 85.6111 
360.355 36.0399 0 36.0399 6.96096 0 0 0 83.0803 
357.589 25.7401 0 25.7401 4.2192 0 0 0 81.9713 
357.663 18.667 0 18.667 2.68451 0 0 0 81.585 
359.233 13.5927 0 13.5927 1.76129 0 0 0 81.5811 
361.535 9.86968 0 9.86968 1.17725 0 0 0 81.7765 
364.118 7.11156 0 7.11156 0.793489 0 0 0 82.067 
366.712 5.06544 0 5.06544 0.533735 0 0 0 82.3917 
369.16 3.55414 0 3.55414 0.353838 0 0 0 82.7152 
371.376 2.44766 0 2.44766 0.227127 0 0 0 83.0172 
373.319 1.64782 0 1.64782 0.136881 0 0 0 83.2873 
374.975 1.07929 0 1.07929 0.0722584 0 0 0 83.5208 
376.351 0.683766 0 0.683766 0.0260115 0 0 0 83.7167 
377.459 0.416004 0 0.416004 -0.00682522 0 0 0 83.8756 
378.317 0.240714 0 0.240714 -0.0297053 0 0 0 83.9994 
378.943 0.130157 0 0.130157 -0.0450281 0 0 0 84.09 
379.351 0.062109 0 0.062109 -0.0544132 0 0 0 84.1493 
379.552 0.0181106 0 0.0181106 -0.0588651 0 0 0 84.1785 
357.157 114.602 0 114.602 110.097 0 0 0 112.82 
376.227 89.4208 0 89.4208 52.7016 0 0 0 98.9096 
374.945 60.565 0 60.565 27.4968 0 0 0 91.8977 
370.977 41.0241 0 41.0241 15.9612 0 0 0 88.0644 
368.294 28.1217 0 28.1217 10.015 0 0 0 85.8865 
367.21 19.3756 0 19.3756 6.61414 0 0 0 84.6465 
367.331 13.3047 0 13.3047 4.50986 0 0 0 83.9649 
368.225 9.03228 0 9.03228 3.12999 0 0 0 83.6233 
369.555 6.01186 0 6.01186 2.18621 0 0 0 83.4891 
371.079 3.88358 0 3.88358 1.52146 0 0 0 83.4789 
372.634 2.39949 0 2.39949 1.0442 0 0 0 83.5393 
374.119 1.38308 0 1.38308 0.697802 0 0 0 83.6359 
375.47 0.70605 0 0.70605 0.445331 0 0 0 83.7468 
376.655 0.274045 0 0.274045 0.261568 0 0 0 83.858 
377.66 0.0173792 0 0.0173792 0.128692 0 0 0 83.9609 
378.483 -0.115436 0 -0.115436 0.0338241 0 0 0 84.0504 
379.128 -0.162417 0 -0.162417 -0.0324055 0 0 0 84.1237 
379.603 -0.151702 0 -0.151702 -0.0767435 0 0 0 84.1793 
379.915 -0.104404 0 -0.104404 -0.103863 0 0 0 84.2165 
380.07 -0.0369441 0 -0.0369441 -0.11671 0 0 0 84.2352 
338.431 89.2504 0 89.2504 111.879 0 0 0 113.175 
359.817 78.5279 0 78.5279 70.4782 0 0 0 103.791 
369.913 59.7163 0 59.7163 42.5858 0 0 0 96.8884 
372.769 42.6068 0 42.6068 26.4518 0 0 0 92.3351 
373.121 29.5814 0 29.5814 17.0986 0 0 0 89.3736 
373.024 20.1705 0 20.1705 11.4274 0 0 0 87.4425 
373.136 13.4842 0 13.4842 7.81083 0 0 0 86.1828 
373.57 8.77385 0 8.77385 5.40177 0 0 0 85.3676 
374.263 5.48638 0 5.48638 3.74262 0 0 0 84.8496 
375.114 3.22341 0 3.22341 2.57308 0 0 0 84.5312 
376.028 1.69754 0 1.69754 1.73674 0 0 0 84.3461 
376.934 0.700126 0 0.700126 1.13444 0 0 0 84.2488 
377.782 0.0790648 0 0.0790648 0.700187 0 0 0 84.2076 
378.542 -0.27657 0 -0.27657 0.388285 0 0 0 84.2009 
379.198 -0.447389 0 -0.447389 0.166127 0 0 0 84.2135 
379.742 -0.491588 0 -0.491588 0.0100629 0 0 0 84.2351 
380.172 -0.450864 0 -0.450864 -0.0971208 0 0 0 84.2587 
380.491 -0.354929 0 -0.354929 -0.167785 0 0 0 84.2797 
380.702 -0.225056 0 -0.225056 -0.210459 0 0 0 84.2951 
380.806 -0.0769318 0 -0.0769318 -0.230504 0 0 0 84.3032 
330.536 70.9253 0 70.9253 110.515 0 0 0 113.099 
349.511 65.4776 0 65.4776 79.043 0 0 0 106.241 
362.861 53.6402 0 53.6402 53.5929 0 0 0 100.259 
370.289 40.5416 0 40.5416 35.9101 0 0 0 95.6623 
373.96 29.1196 0 29.1196 24.2523 0 0 0 92.3028 
375.757 20.1472 0 20.1472 16.5795 0 0 0 89.8937 
376.745 13.4566 0 13.4566 11.4375 0 0 0 88.1798 
377.428 8.6221 0 8.6221 7.91398 0 0 0 86.967 
378.011 5.21416 0 5.21416 5.45244 0 0 0 86.1143 
378.562 2.87144 0 2.87144 3.70887 0 0 0 85.5205 
379.093 1.30942 0 1.30942 2.46407 0 0 0 85.1121 
379.596 0.31098 0 0.31098 1.57316 0 0 0 84.8361 
380.056 -0.286552 0 -0.286552 0.936927 0 0 0 84.6536 
380.465 -0.603304 0 -0.603304 0.485407 0 0 0 84.5364 
380.817 -0.726798 0 -0.726798 0.16824 0 0 0 84.4638 
381.108 -0.719909 0 -0.719909 -0.0512174 0 0 0 84.4209 
381.338 -0.627171 0 -0.627171 -0.199606 0 0 0 84.397 
381.508 -0.479747 0 -0.479747 -0.295987 0 0 0 84.3848 
381.621 -0.299382 0 -0.299382 -0.353461 0 0 0 84.3792 
381.676 -0.101602 0 -0.101602 -0.380225 0 0 0 84.3771 
326.702 56.3821 0 56.3821 109.186 0 0 0 113.122 
343.337 53.2231 0 53.2231 83.4914 0 0 0 107.64 
357.057 45.5866 0 45.5866 60.9399 0 0 0 102.483 
366.685 36.0551 0 36.0551 43.3818 0 0 0 98.1137 
372.78 26.8313 0 26.8313 30.5754 0 0 0 94.6291 
376.449 19.0058 0 19.0058 21.476 0 0 0 91.9396 
378.635 12.854 0 12.854 15.0432 0 0 0 89.9025 
379.957 8.25318 0 8.25318 10.4785 0 0 0 88.3781 
380.784 4.94148 0 4.94148 7.22158 0 0 0 87.2482 
381.326 2.64 0 2.64 4.88875 0 0 0 86.4181 
381.695 1.10118 0 1.10118 3.21655 0 0 0 85.814 
381.957 0.122566 0 0.122566 2.02101 0 0 0 85.3789 
382.148 -0.453943 0 -0.453943 1.17128 0 0 0 85.0691 
382.288 -0.747967 0 -0.747967 0.572778 0 0 0 84.8515 
382.392 -0.84781 0 -0.84781 0.156391 0 0 0 84.7011 
382.469 -0.817262 0 -0.817262 -0.128521 0 0 0 84.599 
382.524 -0.701488 0 -0.701488 -0.318865 0 0 0 84.5314 
382.561 -0.531926 0 -0.531926 -0.441035 0 0 0 84.4885 
382.585 -0.330285 0 -0.330285 -0.513134 0 0 0 84.4634 
382.596 -0.111831 0 -0.111831 -0.546469 0 0 0 84.4519 
324.684 44.0649 0 44.0649 108.192 0 0 0 113.21 
339.56 42.0797 0 42.0797 86.0352 0 0 0 108.535 
352.83 37.0297 0 37.0297 65.807 0 0 0 103.977 
363.331 30.2516 0 30.2516 48.938 0 0 0 99.8806 
370.911 23.193 0 23.193 35.719 0 0 0 96.4066 
376.047 16.8221 0 16.8221 25.7308 0 0 0 93.5736 
379.376 11.5703 0 11.5703 18.3264 0 0 0 91.3235 
381.457 7.50525 0 7.50525 12.8901 0 0 0 89.5695 
382.708 4.50838 0 4.50838 8.9214 0 0 0 88.2218 
383.419 2.39253 0 2.39253 6.03818 0 0 0 87.1986 
383.786 0.964343 0 0.964343 3.95565 0 0 0 86.4303 
383.937 0.0522678 0 0.0522678 2.46263 0 0 0 85.8594 
383.96 -0.484283 0 -0.484283 1.40235 0 0 0 85.4396 
383.911 -0.75489 0 -0.75489 0.658176 0 0 0 85.1345 
383.826 -0.841932 0 -0.841932 0.143352 0 0 0 84.9157 
383.731 -0.805555 0 -0.805555 -0.206393 0 0 0 84.7613 
383.642 -0.688576 0 -0.688576 -0.438142 0 0 0 84.6551 
383.568 -0.520846 0 -0.520846 -0.585637 0 0 0 84.5849 
383.516 -0.322942 0 -0.322942 -0.672025 0 0 0 84.5425 
383.49 -0.109272 0 -0.109272 -0.711751 0 0 0 84.5225 
323.575 33.1449 0 33.1449 107.492 0 0 0 113.316 
337.205 31.8583 0 31.8583 87.5866 0 0 0 109.139 
349.893 28.5086 0 28.5086 69.0407 0 0 0 104.993 
360.65 23.813 0 23.813 52.9184 0 0 0 101.131 
369.061 18.6748 0 18.6748 39.6546 0 0 0 97.7182 
375.214 13.8189 0 13.8189 29.1639 0 0 0 94.8221 
379.467 9.6599 0 9.6599 21.0857 0 0 0 92.4393 
382.251 6.34335 0 6.34335 14.9795 0 0 0 90.5247 
383.961 3.84337 0 3.84337 10.4274 0 0 0 89.0147 
384.921 2.04969 0 2.04969 7.0735 0 0 0 87.842 
385.375 0.82512 0 0.82512 4.62979 0 0 0 86.943 
385.505 0.0369553 0 0.0369553 2.86978 0 0 0 86.262 
385.438 -0.42907 0 -0.42907 1.61807 0 0 0 85.752 
385.265 -0.664765 0 -0.664765 0.740329 0 0 0 85.3745 
385.046 -0.740485 0 -0.740485 0.134756 0 0 0 85.0988 
384.822 -0.70823 0 -0.70823 -0.274948 0 0 0 84.9008 
384.621 -0.605303 0 -0.605303 -0.545052 0 0 0 84.762 