# vtk DataFile Version 2.0
Generated by inSilico's base::io::vtk::LegacyWriter
ASCII
DATASET UNSTRUCTURED_GRID
POINTS 441 float
0 0 0 
0.05 0 0 
0.1 0 0 
0.15 0 0 
0.2 0 0 
0.25 0 0 
0.3 0 0 
0.35 0 0 
0.4 0 0 
0.45 0 0 
0.5 0 0 
0.55 0 0 
0.6 0 0 
0.65 0 0 
0.7 0 0 
0.75 0 0 
0.8 0 0 
0.85 0 0 
0.9 0 0 
0.95 0 0 
1 0 0 
0 0.05 0 
0.05 0.05 0 
0.1 0.05 0 
0.15 0.05 0 
0.2 0.05 0 
0.25 0.05 0 
0.3 0.05 0 
0.35 0.05 0 
0.4 0.05 0 
0.45 0.05 0 
0.5 0.05 0 
0.55 0.05 0 
0.6 0.05 0 
0.65 0.05 0 
0.7 0.05 0 
0.75 0.05 0 
0.8 0.05 0 
0.85 0.05 0 
0.9 0.05 0 
0.95 0.05 0 
1 0.05 0 
0 0.1 0 
0.05 0.1 0 
0.1 0.1 0 
0.15 0.1 0 
0.2 0.1 0 
0.25 0.1 0 
0.3 0.1 0 
0.35 0.1 0 
0.4 0.1 0 
0.45 0.1 0 
0.5 0.1 0 
0.55 0.1 0 
0.6 0.1 0 
0.65 0.1 0 
0.7 0.1 0 
0.75 0.1 0 
0.8 0.1 0 
0.85 0.1 0 
0.9 0.1 0 
0.95 0.1 0 
1 0.1 0 
0 0.15 0 
0.05 0.15 0 
0.1 0.15 0 
0.15 0.15 0 
0.2 0.15 0 
0.25 0.15 0 
0.3 0.15 0 
0.35 0.15 0 
0.4 0.15 0 
0.45 0.15 0 
0.5 0.15 0 
0.55 0.15 0 
0.6 0.15 0 
0.65 0.15 0 
0.7 0.15 0 
0.75 0.15 0 
0.8 0.15 0 
0.85 0.15 0 
0.9 0.15 0 
0.95 0.15 0 
1 0.15 0 
0 0.2 0 
0.05 0.2 0 
0.1 0.2 0 
0.15 0.2 0 
0.2 0.2 0 
0.25 0.2 0 
0.3 0.2 0 
0.35 0.2 0 
0.4 0.2 0 
0.45 0.2 0 
0.5 0.2 0 
0.55 0.2 0 
0.6 0.2 0 
0.65 0.2 0 
0.7 0.2 0 
0.75 0.2 0 
0.8 0.2 0 
0.85 0.2 0 
0.9 0.2 0 
0.95 0.2 0 
1 0.2 0 
0 0.25 0 
0.05 0.25 0 
0.1 0.25 0 
0.15 0.25 0 
0.2 0.25 0 
0.25 0.25 0 
0.3 0.25 0 
0.35 0.25 0 
0.4 0.25 0 
0.45 0.25 0 
0.5 0.25 0 
0.55 0.25 0 
0.6 0.25 0 
0.65 0.25 0 
0.7 0.25 0 
0.75 0.25 0 
0.8 0.25 0 
0.85 0.25 0 
0.9 0.25 0 
0.95 0.25 0 
1 0.25 0 
0 0.3 0 
0.05 0.3 0 
0.1 0.3 0 
0.15 0.3 0 
0.2 0.3 0 
0.25 0.3 0 
0.3 0.3 0 
0.35 0.3 0 
0.4 0.3 0 
0.45 0.3 0 
0.5 0.3 0 
0.55 0.3 0 
0.6 0.3 0 
0.65 0.3 0 
0.7 0.3 0 
0.75 0.3 0 
0.8 0.3 0 
0.85 0.3 0 
0.9 0.3 0 
0.95 0.3 0 
1 0.3 0 
0 0.35 0 
0.05 0.35 0 
0.1 0.35 0 
0.15 0.35 0 
0.2 0.35 0 
0.25 0.35 0 
0.3 0.35 0 
0.35 0.35 0 
0.4 0.35 0 
0.45 0.35 0 
0.5 0.35 0 
0.55 0.35 0 
0.6 0.35 0 
0.65 0.35 0 
0.7 0.35 0 
0.75 0.35 0 
0.8 0.35 0 
0.85 0.35 0 
0.9 0.35 0 
0.95 0.35 0 
1 0.35 0 
0 0.4 0 
0.05 0.4 0 
0.1 0.4 0 
0.15 0.4 0 
0.2 0.4 0 
0.25 0.4 0 
0.3 0.4 0 
0.35 0.4 0 
0.4 0.4 0 
0.45 0.4 0 
0.5 0.4 0 
0.55 0.4 0 
0.6 0.4 0 
0.65 0.4 0 
0.7 0.4 0 
0.75 0.4 0 
0.8 0.4 0 
0.85 0.4 0 
0.9 0.4 0 
0.95 0.4 0 
1 0.4 0 
0 0.45 0 
0.05 0.45 0 
0.1 0.45 0 
0.15 0.45 0 
0.2 0.45 0 
0.25 0.45 0 
0.3 0.45 0 
0.35 0.45 0 
0.4 0.45 0 
0.45 0.45 0 
0.5 0.45 0 
0.55 0.45 0 
0.6 0.45 0 
0.65 0.45 0 
0.7 0.45 0 
0.75 0.45 0 
0.8 0.45 0 
0.85 0.45 0 
0.9 0.45 0 
0.95 0.45 0 
1 0.45 0 
0 0.5 0 
0.05 0.5 0 
0.1 0.5 0 
0.15 0.5 0 
0.2 0.5 0 
0.25 0.5 0 
0.3 0.5 0 
0.35 0.5 0 
0.4 0.5 0 
0.45 0.5 0 
0.5 0.5 0 
0.55 0.5 0 
0.6 0.5 0 
0.65 0.5 0 
0.7 0.5 0 
0.75 0.5 0 
0.8 0.5 0 
0.85 0.5 0 
0.9 0.5 0 
0.95 0.5 0 
1 0.5 0 
0 0.55 0 
0.05 0.55 0 
0.1 0.55 0 
0.15 0.55 0 
0.2 0.55 0 
0.25 0.55 0 
0.3 0.55 0 
0.35 0.55 0 
0.4 0.55 0 
0.45 0.55 0 
0.5 0.55 0 
0.55 0.55 0 
0.6 0.55 0 
0.65 0.55 0 
0.7 0.55 0 
0.75 0.55 0 
0.8 0.55 0 
0.85 0.55 0 
0.9 0.55 0 
0.95 0.55 0 
1 0.55 0 
0 0.6 0 
0.05 0.6 0 
0.1 0.6 0 
0.15 0.6 0 
0.2 0.6 0 
0.25 0.6 0 
0.3 0.6 0 
0.35 0.6 0 
0.4 0.6 0 
0.45 0.6 0 
0.5 0.6 0 
0.55 0.6 0 
0.6 0.6 0 
0.65 0.6 0 
0.7 0.6 0 
0.75 0.6 0 
0.8 0.6 0 
0.85 0.6 0 
0.9 0.6 0 
0.95 0.6 0 
1 0.6 0 
0 0.65 0 
0.05 0.65 0 
0.1 0.65 0 
0.15 0.65 0 
0.2 0.65 0 
0.25 0.65 0 
0.3 0.65 0 
0.35 0.65 0 
0.4 0.65 0 
0.45 0.65 0 
0.5 0.65 0 
0.55 0.65 0 
0.6 0.65 0 
0.65 0.65 0 
0.7 0.65 0 
0.75 0.65 0 
0.8 0.65 0 
0.85 0.65 0 
0.9 0.65 0 
0.95 0.65 0 
1 0.65 0 
0 0.7 0 
0.05 0.7 0 
0.1 0.7 0 
0.15 0.7 0 
0.2 0.7 0 
0.25 0.7 0 
0.3 0.7 0 
0.35 0.7 0 
0.4 0.7 0 
0.45 0.7 0 
0.5 0.7 0 
0.55 0.7 0 
0.6 0.7 0 
0.65 0.7 0 
0.7 0.7 0 
0.75 0.7 0 
0.8 0.7 0 
0.85 0.7 0 
0.9 0.7 0 
0.95 0.7 0 
1 0.7 0 
0 0.75 0 
0.05 0.75 0 
0.1 0.75 0 
0.15 0.75 0 
0.2 0.75 0 
0.25 0.75 0 
0.3 0.75 0 
0.35 0.75 0 
0.4 0.75 0 
0.45 0.75 0 
0.5 0.75 0 
0.55 0.75 0 
0.6 0.75 0 
0.65 0.75 0 
0.7 0.75 0 
0.75 0.75 0 
0.8 0.75 0 
0.85 0.75 0 
0.9 0.75 0 
0.95 0.75 0 
1 0.75 0 
0 0.8 0 
0.05 0.8 0 
0.1 0.8 0 
0.15 0.8 0 
0.2 0.8 0 
0.25 0.8 0 
0.3 0.8 0 
0.35 0.8 0 
0.4 0.8 0 
0.45 0.8 0 
0.5 0.8 0 
0.55 0.8 0 
0.6 0.8 0 
0.65 0.8 0 
0.7 0.8 0 
0.75 0.8 0 
0.8 0.8 0 
0.85 0.8 0 
0.9 0.8 0 
0.95 0.8 0 
1 0.8 0 
0 0.85 0 
0.05 0.85 0 
0.1 0.85 0 
0.15 0.85 0 
0.2 0.85 0 
0.25 0.85 0 
0.3 0.85 0 
0.35 0.85 0 
0.4 0.85 0 
0.45 0.85 0 
0.5 0.85 0 
0.55 0.85 0 
0.6 0.85 0 
0.65 0.85 0 
0.7 0.85 0 
0.75 0.85 0 
0.8 0.85 0 
0.85 0.85 0 
0.9 0.85 0 
0.95 0.85 0 
1 0.85 0 
0 0.9 0 
0.05 0.9 0 
0.1 0.9 0 
0.15 0.9 0 
0.2 0.9 0 
0.25 0.9 0 
0.3 0.9 0 
0.35 0.9 0 
0.4 0.9 0 
0.45 0.9 0 
0.5 0.9 0 
0.55 0.9 0 
0.6 0.9 0 
0.65 0.9 0 
0.7 0.9 0 
0.75 0.9 0 
0.8 0.9 0 
0.85 0.9 0 
0.9 0.9 0 
0.95 0.9 0 
1 0.9 0 
0 0.95 0 
0.05 0.95 0 
0.1 0.95 0 
0.15 0.95 0 
0.2 0.95 0 
0.25 0.95 0 
0.3 0.95 0 
0.35 0.95 0 
0.4 0.95 0 
0.45 0.95 0 
0.5 0.95 0 
0.55 0.95 0 
0.6 0.95 0 
0.65 0.95 0 
0.7 0.95 0 
0.75 0.95 0 
0.8 0.95 0 
0.85 0.95 0 
0.9 0.95 0 
0.95 0.95 0 
1 0.95 0 
0 1 0 
0.05 1 0 
0.1 1 0 
0.15 1 0 
0.2 1 0 
0.25 1 0 
0.3 1 0 
0.35 1 0 
0.4 1 0 
0.45 1 0 
0.5 1 0 
0.55 1 0 
0.6 1 0 
0.65 1 0 
0.7 1 0 
0.75 1 0 
0.8 1 0 
0.85 1 0 
0.9 1 0 
0.95 1 0 
1 1 0 
CELLS 400 2000
4 0 1 22 21 
4 1 2 23 22 
4 2 3 24 23 
4 3 4 25 24 
4 4 5 26 25 
4 5 6 27 26 
4 6 7 28 27 
4 7 8 29 28 
4 8 9 30 29 
4 9 10 31 30 
4 10 11 32 31 
4 11 12 33 32 
4 12 13 34 33 
4 13 14 35 34 
4 14 15 36 35 
4 15 16 37 36 
4 16 17 38 37 
4 17 18 39 38 
4 18 19 40 39 
4 19 20 41 40 
4 21 22 43 42 
4 22 23 44 43 
4 23 24 45 44 
4 24 25 46 45 
4 25 26 47 46 
4 26 27 48 47 
4 27 28 49 48 
4 28 29 50 49 
4 29 30 51 50 
4 30 31 52 51 
4 31 32 53 52 
4 32 33 54 53 
4 33 34 55 54 
4 34 35 56 55 
4 35 36 57 56 
4 36 37 58 57 
4 37 38 59 58 
4 38 39 60 59 
4 39 40 61 60 
4 40 41 62 61 
4 42 43 64 63 
4 43 44 65 64 
4 44 45 66 65 
4 45 46 67 66 
4 46 47 68 67 
4 47 48 69 68 
4 48 49 70 69 
4 49 50 71 70 
4 50 51 72 71 
4 51 52 73 72 
4 52 53 74 73 
4 53 54 75 74 
4 54 55 76 75 
4 55 56 77 76 
4 56 57 78 77 
4 57 58 79 78 
4 58 59 80 79 
4 59 60 81 80 
4 60 61 82 81 
4 61 62 83 82 
4 63 64 85 84 
4 64 65 86 85 
4 65 66 87 86 
4 66 67 88 87 
4 67 68 89 88 
4 68 69 90 89 
4 69 70 91 90 
4 70 71 92 91 
4 71 72 93 92 
4 72 73 94 93 
4 73 74 95 94 
4 74 75 96 95 
4 75 76 97 96 
4 76 77 98 97 
4 77 78 99 98 
4 78 79 100 99 
4 79 80 101 100 
4 80 81 102 101 
4 81 82 103 102 
4 82 83 104 103 
4 84 85 106 105 
4 85 86 107 106 
4 86 87 108 107 
4 87 88 109 108 
4 88 89 110 109 
4 89 90 111 110 
4 90 91 112 111 
4 91 92 113 112 
4 92 93 114 113 
4 93 94 115 114 
4 94 95 116 115 
4 95 96 117 116 
4 96 97 118 117 
4 97 98 119 118 
4 98 99 120 119 
4 99 100 121 120 
4 100 101 122 121 
4 101 102 123 122 
4 102 103 124 123 
4 103 104 125 124 
4 105 106 127 126 
4 106 107 128 127 
4 107 108 129 128 
4 108 109 130 129 
4 109 110 131 130 
4 110 111 132 131 
4 111 112 133 132 
4 112 113 134 133 
4 113 114 135 134 
4 114 115 136 135 
4 115 116 137 136 
4 116 117 138 137 
4 117 118 139 138 
4 118 119 140 139 
4 119 120 141 140 
4 120 121 142 141 
4 121 122 143 142 
4 122 123 144 143 
4 123 124 145 144 
4 124 125 146 145 
4 126 127 148 147 
4 127 128 149 148 
4 128 129 150 149 
4 129 130 151 150 
4 130 131 152 151 
4 131 132 153 152 
4 132 133 154 153 
4 133 134 155 154 
4 134 135 156 155 
4 135 136 157 156 
4 136 137 158 157 
4 137 138 159 158 
4 138 139 160 159 
4 139 140 161 160 
4 140 141 162 161 
4 141 142 163 162 
4 142 143 164 163 
4 143 144 165 164 
4 144 145 166 165 
4 145 146 167 166 
4 147 148 169 168 
4 148 149 170 169 
4 149 150 171 170 
4 150 151 172 171 
4 151 152 173 172 
4 152 153 174 173 
4 153 154 175 174 
4 154 155 176 175 
4 155 156 177 176 
4 156 157 178 177 
4 157 158 179 178 
4 158 159 180 179 
4 159 160 181 180 
4 160 161 182 181 
4 161 162 183 182 
4 162 163 184 183 
4 163 164 185 184 
4 164 165 186 185 
4 165 166 187 186 
4 166 167 188 187 
4 168 169 190 189 
4 169 170 191 190 
4 170 171 192 191 
4 171 172 193 192 
4 172 173 194 193 
4 173 174 195 194 
4 174 175 196 195 
4 175 176 197 196 
4 176 177 198 197 
4 177 178 199 198 
4 178 179 200 199 
4 179 180 201 200 
4 180 181 202 201 
4 181 182 203 202 
4 182 183 204 203 
4 183 184 205 204 
4 184 185 206 205 
4 185 186 207 206 
4 186 187 208 207 
4 187 188 209 208 
4 189 190 211 210 
4 190 191 212 211 
4 191 192 213 212 
4 192 193 214 213 
4 193 194 215 214 
4 194 195 216 215 
4 195 196 217 216 
4 196 197 218 217 
4 197 198 219 218 
4 198 199 220 219 
4 199 200 221 220 
4 200 201 222 221 
4 201 202 223 222 
4 202 203 224 223 
4 203 204 225 224 
4 204 205 226 225 
4 205 206 227 226 
4 206 207 228 227 
4 207 208 229 228 
4 208 209 230 229 
4 210 211 232 231 
4 211 212 233 232 
4 212 213 234 233 
4 213 214 235 234 
4 214 215 236 235 
4 215 216 237 236 
4 216 217 238 237 
4 217 218 239 238 
4 218 219 240 239 
4 219 220 241 240 
4 220 221 242 241 
4 221 222 243 242 
4 222 223 244 243 
4 223 224 245 244 
4 224 225 246 245 
4 225 226 247 246 
4 226 227 248 247 
4 227 228 249 248 
4 228 229 250 249 
4 229 230 251 250 
4 231 232 253 252 
4 232 233 254 253 
4 233 234 255 254 
4 234 235 256 255 
4 235 236 257 256 
4 236 237 258 257 
4 237 238 259 258 
4 238 239 260 259 
4 239 240 261 260 
4 240 241 262 261 
4 241 242 263 262 
4 242 243 264 263 
4 243 244 265 264 
4 244 245 266 265 
4 245 246 267 266 
4 246 247 268 267 
4 247 248 269 268 
4 248 249 270 269 
4 249 250 271 270 
4 250 251 272 271 
4 252 253 274 273 
4 253 254 275 274 
4 254 255 276 275 
4 255 256 277 276 
4 256 257 278 277 
4 257 258 279 278 
4 258 259 280 279 
4 259 260 281 280 
4 260 261 282 281 
4 261 262 283 282 
4 262 263 284 283 
4 263 264 285 284 
4 264 265 286 285 
4 265 266 287 286 
4 266 267 288 287 
4 267 268 289 288 
4 268 269 290 289 
4 269 270 291 290 
4 270 271 292 291 
4 271 272 293 292 
4 273 274 295 294 
4 274 275 296 295 
4 275 276 297 296 
4 276 277 298 297 
4 277 278 299 298 
4 278 279 300 299 
4 279 280 301 300 
4 280 281 302 301 
4 281 282 303 302 
4 282 283 304 303 
4 283 284 305 304 
4 284 285 306 305 
4 285 286 307 306 
4 286 287 308 307 
4 287 288 309 308 
4 288 289 310 309 
4 289 290 311 310 
4 290 291 312 311 
4 291 292 313 312 
4 292 293 314 313 
4 294 295 316 315 
4 295 296 317 316 
4 296 297 318 317 
4 297 298 319 318 
4 298 299 320 319 
4 299 300 321 320 
4 300 301 322 321 
4 301 302 323 322 
4 302 303 324 323 
4 303 304 325 324 
4 304 305 326 325 
4 305 306 327 326 
4 306 307 328 327 
4 307 308 329 328 
4 308 309 330 329 
4 309 310 331 330 
4 310 311 332 331 
4 311 312 333 332 
4 312 313 334 333 
4 313 314 335 334 
4 315 316 337 336 
4 316 317 338 337 
4 317 318 339 338 
4 318 319 340 339 
4 319 320 341 340 
4 320 321 342 341 
4 321 322 343 342 
4 322 323 344 343 
4 323 324 345 344 
4 324 325 346 345 
4 325 326 347 346 
4 326 327 348 347 
4 327 328 349 348 
4 328 329 350 349 
4 329 330 351 350 
4 330 331 352 351 
4 331 332 353 352 
4 332 333 354 353 
4 333 334 355 354 
4 334 335 356 355 
4 336 337 358 357 
4 337 338 359 358 
4 338 339 360 359 
4 339 340 361 360 
4 340 341 362 361 
4 341 342 363 362 
4 342 343 364 363 
4 343 344 365 364 
4 344 345 366 365 
4 345 346 367 366 
4 346 347 368 367 
4 347 348 369 368 
4 348 349 370 369 
4 349 350 371 370 
4 350 351 372 371 
4 351 352 373 372 
4 352 353 374 373 
4 353 354 375 374 
4 354 355 376 375 
4 355 356 377 376 
4 357 358 379 378 
4 358 359 380 379 
4 359 360 381 380 
4 360 361 382 381 
4 361 362 383 382 
4 362 363 384 383 
4 363 364 385 384 
4 364 365 386 385 
4 365 366 387 386 
4 366 367 388 387 
4 367 368 389 388 
4 368 369 390 389 
4 369 370 391 390 
4 370 371 392 391 
4 371 372 393 392 
4 372 373 394 393 
4 373 374 395 394 
4 374 375 396 395 
4 375 376 397 396 
4 376 377 398 397 
4 378 379 400 399 
4 379 380 401 400 
4 380 381 402 401 
4 381 382 403 402 
4 382 383 404 403 
4 383 384 405 404 
4 384 385 406 405 
4 385 386 407 406 
4 386 387 408 407 
4 387 388 409 408 
4 388 389 410 409 
4 389 390 411 410 
4 390 391 412 411 
4 391 392 413 412 
4 392 393 414 413 
4 393 394 415 414 
4 394 395 416 415 
4 395 396 417 416 
4 396 397 418 417 
4 397 398 419 418 
4 399 400 421 420 
4 400 401 422 421 
4 401 402 423 422 
4 402 403 424 423 
4 403 404 425 424 
4 404 405 426 425 
4 405 406 427 426 
4 406 407 428 427 
4 407 408 429 428 
4 408 409 430 429 
4 409 410 431 430 
4 410 411 432 431 
4 411 412 433 432 
4 412 413 434 433 
4 413 414 435 434 
4 414 415 436 435 
4 415 416 437 436 
4 416 417 438 437 
4 417 418 439 438 
4 418 419 440 439 
CELL_TYPES 400
9
9
9
9
9
9
9
9
9
9
9
9
9
9
9
9
9
9
9
9
9
9
9
9
9
9
9
9
9
9
9
9
9
9
9
9
9
9
9
9
9
9
9
9
9
9
9
9
9
9
9
9
9
9
9
9
9
9
9
9
9
9
9
9
9
9
9
9
9
9
9
9
9
9
9
9
9
9
9
9
9
9
9
9
9
9
9
9
9
9
9
9
9
9
9
9
9
9
9
9
9
9
9
9
9
9
9
9
9
9
9
9
9
9
9
9
9
9
9
9
9
9
9
9
9
9
9
9
9
9
9
9
9
9
9
9
9
9
9
9
9
9
9
9
9
9
9
9
9
9
9
9
9
9
9
9
9
9
9
9
9
9
9
9
9
9
9
9
9
9
9
9
9
9
9
9
9
9
9
9
9
9
9
9
9
9
9
9
9
9
9
9
9
9
9
9
9
9
9
9
9
9
9
9
9
9
9
9
9
9
9
9
9
9
9
9
9
9
9
9
9
9
9
9
9
9
9
9
9
9
9
9
9
9
9
9
9
9
9
9
9
9
9
9
9
9
9
9
9
9
9
9
9
9
9
9
9
9
9
9
9
9
9
9
9
9
9
9
9
9
9
9
9
9
9
9
9
9
9
9
9
9
9
9
9
9
9
9
9
9
9
9
9
9
9
9
9
9
9
9
9
9
9
9
9
9
9
9
9
9
9
9
9
9
9
9
9
9
9
9
9
9
9
9
9
9
9
9
9
9
9
9
9
9
9
9
9
9
9
9
9
9
9
9
9
9
9
9
9
9
9
9
9
9
9
9
9
9
9
9
9
9
9
9
9
9
9
9
9
9
9
9
9
9
9
9
9
9
9
9
9
9
9
9
9
9
9
9
9
9
9
9
9
9
9
9
9
9
9
9
POINT_DATA 441
VECTORS disp float 
0 0 0 
0.0209284 0.0204695 0 
0.0374244 0.0320488 0 
0.0528964 0.0400197 0 
0.068079 0.0458413 0 
0.0832361 0.0501849 0 
0.0984834 0.0534492 0 
0.113873 0.0559036 0 
0.129426 0.0577428 0 
0.145144 0.0591127 0 
0.161019 0.060125 0 
0.177038 0.0608662 0 
0.193183 0.0614029 0 
0.209439 0.0617867 0 
0.225788 0.0620572 0 
0.242214 0.0622448 0 
0.258701 0.0623721 0 
0.275236 0.0624557 0 
0.291805 0.0625077 0 
0.308397 0.0625359 0 
0.325 0.0625448 0 
0 0 0 
0.0155883 0.0146776 0 
0.0324769 0.0259422 0 
0.0488649 0.034043 0 
0.0648831 0.0399616 0 
0.0807289 0.0443432 0 
0.0965299 0.047605 0 
0.112361 0.0500335 0 
0.128262 0.0518347 0 
0.144254 0.0531622 0 
0.160344 0.0541322 0 
0.176529 0.0548336 0 
0.192804 0.0553346 0 
0.209159 0.0556874 0 
0.225583 0.0559318 0 
0.242067 0.0560979 0 
0.258598 0.0562082 0 
0.275167 0.056279 0 
0.291763 0.0563221 0 
0.308377 0.056345 0 
0.325 0.0563522 0 
0 0 0 
0.014161 0.0112103 0 
0.029852 0.0209691 0 
0.046051 0.0285644 0 
0.062291 0.0342967 0 
0.0784832 0.0385879 0 
0.094644 0.0417875 0 
0.110807 0.044162 0 
0.126999 0.0459128 0 
0.143239 0.0471931 0 
0.159536 0.0481197 0 
0.175892 0.0487823 0 
0.192306 0.0492494 0 
0.208774 0.0495734 0 
0.22529 0.0497938 0 
0.241847 0.0499404 0 
0.258437 0.0500354 0 
0.275055 0.0500948 0 
0.291692 0.0501299 0 
0.308343 0.0501481 0 
0.325 0.0501538 0 
0 0 0 
0.0136169 0.00886415 0 
0.0285378 0.0169759 0 
0.0442714 0.0236994 0 
0.0603833 0.0289815 0 
0.0766503 0.0330222 0 
0.0929842 0.0360659 0 
0.109357 0.0383322 0 
0.125763 0.0400014 0 
0.142204 0.0412171 0 
0.158682 0.0420912 0 
0.175197 0.0427109 0 
0.191747 0.043143 0 
0.20833 0.0434386 0 
0.224943 0.0436363 0 
0.241581 0.0437652 0 
0.25824 0.0438466 0 
0.274916 0.043896 0 
0.291604 0.0439243 0 
0.3083 0.0439385 0 
0.325 0.0439429 0 
0 0 0 
0.013363 0.00707595 0 
0.0278346 0.0136959 0 
0.0431631 0.0194075 0 
0.0590404 0.0240569 0 
0.0752359 0.0277018 0 
0.091611 0.0304885 0 
0.108091 0.0325798 0 
0.124636 0.0341248 0 
0.141227 0.0352492 0 
0.157852 0.036055 0 
0.174504 0.0366228 0 
0.191177 0.0370154 0 
0.20787 0.0372811 0 
0.224577 0.0374563 0 
0.241297 0.0375684 0 
0.258026 0.0376375 0 
0.274763 0.0376783 0 
0.291506 0.0377008 0 
0.308252 0.0377119 0 
0.325 0.0377151 0 
0 0 0 
0.0132309 0.00559911 0 
0.0274325 0.0108957 0 
0.0424626 0.0155805 0 
0.058111 0.0194982 0 
0.0741808 0.0226387 0 
0.090524 0.0250781 0 
0.10704 0.0269273 0 
0.123666 0.028301 0 
0.140359 0.0293025 0 
0.157096 0.0300196 0 
0.173859 0.0305233 0 
0.190638 0.0308696 0 
0.207427 0.031102 0 
0.22422 0.0312535 0 
0.241016 0.031349 0 
0.257813 0.0314067 0 
0.274611 0.0314398 0 
0.291407 0.0314576 0 
0.308204 0.031466 0 
0.325 0.0314684 0 
0 0 0 
0.0131579 0.00431219 0 
0.0271917 0.00841655 0 
0.0420127 0.0121037 0 
0.0574735 0.0152471 0 
0.0734145 0.0178125 0 
0.0896956 0.0198339 0 
0.106208 0.0213819 0 
0.122871 0.0225392 0 
0.139631 0.0233859 0 
0.156447 0.0239925 0 
0.173296 0.024418 0 
0.19016 0.0247095 0 
0.207029 0.024904 0 
0.223897 0.0250298 0 
0.240761 0.0251081 0 
0.257618 0.0251547 0 
0.27447 0.0251809 0 
0.291316 0.0251945 0 
0.308159 0.0252007 0 
0.325 0.0252025 0 
0 0 0 
0.0131164 0.00314678 0 
0.0270446 0.00615279 0 
0.0417236 0.00887997 0 
0.0570443 0.0112357 0 
0.0728761 0.013184 0 
0.089092 0.014737 0 
0.105582 0.0159369 0 
0.122259 0.0168394 0 
0.139057 0.0175021 0 
0.155928 0.0179777 0 
0.172839 0.0183112 0 
0.189768 0.0185393 0 
0.2067 0.0186909 0 
0.223628 0.0187884 0 
0.240546 0.0188486 0 
0.257453 0.018884 0 
0.27435 0.0189035 0 
0.291238 0.0189135 0 
0.308121 0.0189179 0 
0.325 0.0189191 0 
0 0 0 
0.0130931 0.00205928 0 
0.0269566 0.00403069 0 
0.0415443 0.00583007 0 
0.0567694 0.00739756 0 
0.072521 0.00870582 0 
0.0886832 0.00975727 0 
0.105149 0.0105751 0 
0.121827 0.0111933 0 
0.138646 0.0116487 0 
0.155551 0.0119761 0 
0.172504 0.0122057 0 
0.189478 0.0123625 0 
0.206455 0.0124666 0 
0.223425 0.0125333 0 
0.240383 0.0125743 0 
0.257328 0.0125981 0 
0.274259 0.0126112 0 
0.291179 0.0126177 0 
0.308092 0.0126205 0 
0.325 0.0126213 0 
0 0 0 
0.0130812 0.00101861 0 
0.0269096 0.00199488 0 
0.0414463 0.00288889 0 
0.056616 0.00367139 0 
0.0723191 0.00432791 0 
0.0884468 0.00485817 0 
0.104895 0.00527234 0 
0.12157 0.00558638 0 
0.138399 0.00581821 0 
0.155323 0.00598505 0 
0.1723 0.00610213 0 
0.189299 0.00618209 0 
0.206303 0.00623508 0 
0.2233 0.00626897 0 
0.240283 0.00628973 0 
0.25725 0.00630177 0 
0.274202 0.0063083 0 
0.291142 0.00631153 0 
0.308073 0.00631293 0 
0.325 0.00631331 0 
0 0 0 
0.0130776 1.10775e-17 0 
0.0268948 2.15213e-17 0 
0.0414151 3.19874e-17 0 
0.0565667 3.56431e-17 0 
0.0722536 4.04814e-17 0 
0.0883695 3.99702e-17 0 
0.104811 3.60853e-17 0 
0.121485 3.96513e-17 0 
0.138317 3.57109e-17 0 
0.155247 4.27294e-17 0 
0.172231 5.0429e-17 0 
0.189239 5.86689e-17 0 
0.206252 4.64377e-17 0 
0.223257 6.01427e-17 0 
0.240248 5.68529e-17 0 
0.257223 5.20722e-17 0 
0.274183 6.23653e-17 0 
0.29113 7.93907e-17 0 
0.308067 8.92502e-17 0 
0.325 8.3863e-17 0 
0 0 0 
0.0130812 -0.00101861 0 
0.0269096 -0.00199488 0 
0.0414463 -0.00288889 0 
0.056616 -0.00367139 0 
0.0723191 -0.00432791 0 
0.0884468 -0.00485817 0 
0.104895 -0.00527234 0 
0.12157 -0.00558638 0 
0.138399 -0.00581821 0 
0.155323 -0.00598505 0 
0.1723 -0.00610213 0 
0.189299 -0.00618209 0 
0.206303 -0.00623508 0 
0.2233 -0.00626897 0 
0.240283 -0.00628973 0 
0.25725 -0.00630177 0 
0.274202 -0.0063083 0 
0.291142 -0.00631153 0 
0.308073 -0.00631293 0 
0.325 -0.00631331 0 
0 0 0 
0.0130931 -0.00205928 0 
0.0269566 -0.00403069 0 
0.0415443 -0.00583007 0 
0.0567694 -0.00739756 0 
0.072521 -0.00870582 0 
0.0886832 -0.00975727 0 
0.105149 -0.0105751 0 
0.121827 -0.0111933 0 
0.138646 -0.0116487 0 
0.155551 -0.0119761 0 
0.172504 -0.0122057 0 
0.189478 -0.0123625 0 
0.206455 -0.0124666 0 
0.223425 -0.0125333 0 
0.240383 -0.0125743 0 
0.257328 -0.0125981 0 
0.274259 -0.0126112 0 
0.291179 -0.0126177 0 
0.308092 -0.0126205 0 
0.325 -0.0126213 0 
0 0 0 
0.0131164 -0.00314678 0 
0.0270446 -0.00615279 0 
0.0417236 -0.00887997 0 
0.0570443 -0.0112357 0 
0.0728761 -0.013184 0 
0.089092 -0.014737 0 
0.105582 -0.0159369 0 
0.122259 -0.0168394 0 
0.139057 -0.0175021 0 
0.155928 -0.0179777 0 
0.172839 -0.0183112 0 
0.189768 -0.0185393 0 
0.2067 -0.0186909 0 
0.223628 -0.0187884 0 
0.240546 -0.0188486 0 
0.257453 -0.018884 0 
0.27435 -0.0189035 0 
0.291238 -0.0189135 0 
0.308121 -0.0189179 0 
0.325 -0.0189191 0 
0 0 0 
0.0131579 -0.00431219 0 
0.0271917 -0.00841655 0 
0.0420127 -0.0121037 0 
0.0574735 -0.0152471 0 
0.0734145 -0.0178125 0 
0.0896956 -0.0198339 0 
0.106208 -0.0213819 0 
0.122871 -0.0225392 0 
0.139631 -0.0233859 0 
0.156447 -0.0239925 0 
0.173296 -0.024418 0 
0.19016 -0.0247095 0 
0.207029 -0.024904 0 
0.223897 -0.0250298 0 
0.240761 -0.0251081 0 
0.257618 -0.0251547 0 
0.27447 -0.0251809 0 
0.291316 -0.0251945 0 
0.308159 -0.0252007 0 
0.325 -0.0252025 0 
0 0 0 
0.0132309 -0.00559911 0 
0.0274325 -0.0108957 0 
0.0424626 -0.0155805 0 
0.058111 -0.0194982 0 
0.0741808 -0.0226387 0 
0.090524 -0.0250781 0 
0.10704 -0.0269273 0 
0.123666 -0.028301 0 
0.140359 -0.0293025 0 
0.157096 -0.0300196 0 
0.173859 -0.0305233 0 
0.190638 -0.0308696 0 
0.207427 -0.031102 0 
0.22422 -0.0312535 0 
0.241016 -0.031349 0 
0.257813 -0.0314067 0 
0.274611 -0.0314398 0 
0.291407 -0.0314576 0 
0.308204 -0.031466 0 
0.325 -0.0314684 0 
0 0 0 
0.013363 -0.00707595 0 
0.0278346 -0.0136959 0 
0.0431631 -0.0194075 0 
0.0590404 -0.0240569 0 
0.0752359 -0.0277018 0 
0.091611 -0.0304885 0 
0.108091 -0.0325798 0 
0.124636 -0.0341248 0 
0.141227 -0.0352492 0 
0.157852 -0.036055 0 
0.174504 -0.0366228 0 
0.191177 -0.0370154 0 
0.20787 -0.0372811 0 
0.224577 -0.0374563 0 
0.241297 -0.0375684 0 
0.258026 -0.0376375 0 
0.274763 -0.0376783 0 
0.291506 -0.0377008 0 
0.308252 -0.0377119 0 
0.325 -0.0377151 0 
0 0 0 
0.0136169 -0.00886415 0 
0.0285378 -0.0169759 0 
0.0442714 -0.0236994 0 
0.0603833 -0.0289815 0 
0.0766503 -0.0330222 0 
0.0929842 -0.0360659 0 
0.109357 -0.0383322 0 
0.125763 -0.0400014 0 
0.142204 -0.0412171 0 
0.158682 -0.0420912 0 
0.175197 -0.0427109 0 
0.191747 -0.043143 0 
0.20833 -0.0434386 0 
0.224943 -0.0436363 0 
0.241581 -0.0437652 0 
0.25824 -0.0438466 0 
0.274916 -0.043896 0 
0.291604 -0.0439243 0 
0.3083 -0.0439385 0 
0.325 -0.0439429 0 
0 0 0 
0.014161 -0.0112103 0 
0.029852 -0.0209691 0 
0.046051 -0.0285644 0 
0.062291 -0.0342967 0 
0.0784832 -0.0385879 0 
0.094644 -0.0417875 0 
0.110807 -0.044162 0 
0.126999 -0.0459128 0 
0.143239 -0.0471931 0 
0.159536 -0.0481197 0 
0.175892 -0.0487823 0 
0.192306 -0.0492494 0 
0.208774 -0.0495734 0 
0.22529 -0.0497938 0 
0.241847 -0.0499404 0 
0.258437 -0.0500354 0 
0.275055 -0.0500948 0 
0.291692 -0.0501299 0 
0.308343 -0.0501481 0 
0.325 -0.0501538 0 
0 0 0 
0.0155883 -0.0146776 0 
0.0324769 -0.0259422 0 
0.0488649 -0.034043 0 
0.0648831 -0.0399616 0 
0.0807289 -0.0443432 0 
0.0965299 -0.047605 0 
0.112361 -0.0500335 0 
0.128262 -0.0518347 0 
0.144254 -0.0531622 0 
0.160344 -0.0541322 0 
0.176529 -0.0548336 0 
0.192804 -0.0553346 0 
0.209159 -0.0556874 0 
0.225583 -0.0559318 0 
0.242067 -0.0560979 0 
0.258598 -0.0562082 0 
0.275167 -0.056279 0 
0.291763 -0.0563221 0 
0.308377 -0.056345 0 
0.325 -0.0563522 0 
0 0 0 
0.0209284 -0.0204695 0 
0.0374244 -0.0320488 0 
0.0528964 -0.0400197 0 
0.068079 -0.0458413 0 
0.0832361 -0.0501849 0 
0.0984834 -0.0534492 0 
0.113873 -0.0559036 0 
0.129426 -0.0577428 0 
0.145144 -0.0591127 0 
0.161019 -0.060125 0 
0.177038 -0.0608662 0 
0.193183 -0.0614029 0 
0.209439 -0.0617867 0 
0.225788 -0.0620572 0 
0.242214 -0.0622448 0 
0.258701 -0.0623721 0 
0.275236 -0.0624557 0 
0.291805 -0.0625077 0 
0.308397 -0.0625359 0 
0.325 -0.0625448 0 
CELL_DATA 400
TENSORS sigma float 
372.576 132.344 0 132.344 65.5121 0 0 0 97.0341 
341.147 68.4794 0 68.4794 21.427 0 0 0 83.2559 
323.392 42.9525 0 42.9525 10.1223 0 0 0 77.7349 
315.285 29.3366 0 29.3366 5.64198 0 0 0 75.2559 
312.306 20.8199 0 20.8199 3.42432 0 0 0 74.1678 
312.061 15.0181 0 15.0181 2.18445 0 0 0 73.7878 
313.27 10.879 0 10.879 1.43659 0 0 0 73.7841 
315.21 7.85445 0 7.85445 0.960959 0 0 0 73.9777 
317.453 5.621 0 5.621 0.646234 0 0 0 74.2666 
319.744 3.96912 0 3.96912 0.431571 0 0 0 74.5907 
321.929 2.75314 0 2.75314 0.281776 0 0 0 74.9148 
323.923 1.8668 0 1.8668 0.175541 0 0 0 75.2186 
325.682 1.23012 0 1.23012 0.099443 0 0 0 75.4914 
327.191 0.781809 0 0.781809 0.0447074 0 0 0 75.728 
328.45 0.474457 0 0.474457 0.00541288 0 0 0 75.927 
329.468 0.271235 0 0.271235 -0.0225413 0 0 0 76.089 
330.259 0.143406 0 0.143406 -0.042037 0 0 0 76.2155 
330.837 0.0683614 0 0.0683614 -0.0550954 0 0 0 76.3083 
331.215 0.0279822 0 0.0279822 -0.0630917 0 0 0 76.369 
331.402 0.00721357 0 0.00721357 -0.0668836 0 0 0 76.3991 
318.019 99.3146 0 99.3146 97.5799 0 0 0 103.131 
332.552 76.8238 0 76.8238 45.785 0 0 0 90.089 
329.979 51.3634 0 51.3634 23.6539 0 0 0 83.5171 
325.525 34.361 0 34.361 13.6571 0 0 0 79.9051 
322.523 23.2655 0 23.2655 8.54247 0 0 0 77.8499 
321.142 15.8196 0 15.8196 5.62905 0 0 0 76.6841 
320.965 10.6974 0 10.6974 3.82938 0 0 0 76.0503 
321.569 7.12324 0 7.12324 2.64929 0 0 0 75.7412 
322.625 4.61853 0 4.61853 1.84135 0 0 0 75.6302 
323.901 2.87115 0 2.87115 1.27141 0 0 0 75.6372 
325.238 1.6677 0 1.6677 0.86157 0 0 0 75.7109 
326.537 0.857289 0 0.857289 0.563699 0 0 0 75.8183 
327.732 0.3308 0 0.3308 0.346394 0 0 0 75.9379 
328.791 0.00835809 0 0.00835809 0.188171 0 0 0 76.0563 
329.695 -0.168794 0 -0.168794 0.0737956 0 0 0 76.1651 
330.44 -0.243883 0 -0.243883 -0.00778874 0 0 0 76.2594 
331.027 -0.248658 0 -0.248658 -0.0646655 0 0 0 76.3365 
331.46 -0.206462 0 -0.206462 -0.102679 0 0 0 76.3949 
331.745 -0.134656 0 -0.134656 -0.125894 0 0 0 76.4341 
331.887 -0.0466071 0 -0.0466071 -0.136879 0 0 0 76.4537 
300.64 77.6628 0 77.6628 100.105 0 0 0 103.037 
318.103 68.0505 0 68.0505 62.7255 0 0 0 94.4202 
325.896 51.3935 0 51.3935 37.6552 0 0 0 88.0403 
327.582 36.3326 0 36.3326 23.2678 0 0 0 83.8277 
327.275 24.9455 0 24.9455 14.976 0 0 0 81.0867 
326.737 16.776 0 16.776 9.96833 0 0 0 79.3017 
326.505 11.0127 0 11.0127 6.78322 0 0 0 78.1418 
326.649 6.98326 0 6.98326 4.66526 0 0 0 77.3966 
327.091 4.19544 0 4.19544 3.20831 0 0 0 76.9288 
327.725 2.29735 0 2.29735 2.18227 0 0 0 76.647 
328.453 1.03663 0 1.03663 1.44924 0 0 0 76.489 
329.202 0.230946 0 0.230946 0.921978 0 0 0 76.4119 
329.922 -0.252121 0 -0.252121 0.542455 0 0 0 76.3861 
330.577 -0.508811 0 -0.508811 0.270473 0 0 0 76.3911 
331.15 -0.60882 0 -0.60882 0.0773203 0 0 0 76.4126 
331.63 -0.602259 0 -0.602259 -0.0578748 0 0 0 76.4409 
332.012 -0.524824 0 -0.524824 -0.150341 0 0 0 76.4694 
332.298 -0.401744 0 -0.401744 -0.21104 0 0 0 76.4939 
332.487 -0.250871 0 -0.250871 -0.247556 0 0 0 76.5116 
332.58 -0.0851708 0 -0.0851708 -0.264661 0 0 0 76.5208 
293.228 61.8208 0 61.8208 99.3139 0 0 0 102.74 
308.968 56.9293 0 56.9293 70.9477 0 0 0 96.5239 
319.845 46.4575 0 46.4575 47.9809 0 0 0 91.0643 
325.668 34.9055 0 34.9055 32.0485 0 0 0 86.8594 
328.329 24.8631 0 24.8631 21.5704 0 0 0 83.7838 
329.465 17.0038 0 17.0038 14.6896 0 0 0 81.5788 
329.991 11.1688 0 11.1688 10.087 0 0 0 80.0118 
330.329 6.97453 0 6.97453 6.938 0 0 0 78.9054 
330.645 4.03769 0 4.03769 4.74111 0 0 0 78.1301 
330.984 2.03737 0 2.03737 3.18713 0 0 0 77.5927 
331.346 0.72181 0 0.72181 2.07944 0 0 0 77.2256 
331.712 -0.100639 0 -0.100639 1.28824 0 0 0 76.9799 
332.065 -0.573316 0 -0.573316 0.724667 0 0 0 76.8197 
332.39 -0.801915 0 -0.801915 0.326071 0 0 0 76.7188 
332.676 -0.863312 0 -0.863312 0.0472848 0 0 0 76.6582 
332.917 -0.812595 0 -0.812595 -0.144606 0 0 0 76.624 
333.111 -0.688627 0 -0.688627 -0.273579 0 0 0 76.6063 
333.256 -0.518419 0 -0.518419 -0.356827 0 0 0 76.5984 
333.353 -0.320624 0 -0.320624 -0.406188 0 0 0 76.5954 
333.401 -0.108368 0 -0.108368 -0.429082 0 0 0 76.5946 
289.597 49.1937 0 49.1937 98.3915 0 0 0 102.632 
303.487 46.3491 0 46.3491 75.2476 0 0 0 97.6997 
314.829 39.6018 0 39.6018 54.8864 0 0 0 93.0362 
322.663 31.2013 0 31.2013 39.0163 0 0 0 89.0755 
327.495 23.0812 0 23.0812 27.4397 0 0 0 85.912 
330.293 16.2019 0 16.2019 19.2172 0 0 0 83.4683 
331.872 10.8048 0 10.8048 13.4077 0 0 0 81.6164 
332.763 6.7806 0 6.7806 9.28805 0 0 0 80.2302 
333.28 3.89685 0 3.89685 6.35092 0 0 0 79.2025 
333.594 1.90656 0 1.90656 4.24925 0 0 0 78.4477 
333.795 0.590568 0 0.590568 2.74476 0 0 0 77.8987 
333.932 -0.230412 0 -0.230412 1.67117 0 0 0 77.5038 
334.03 -0.696456 0 -0.696456 0.910131 0 0 0 77.2232 
334.103 -0.913601 0 -0.913601 0.376015 0 0 0 77.0266 
334.157 -0.960143 0 -0.960143 0.00617136 0 0 0 76.8912 
334.198 -0.892602 0 -0.892602 -0.245414 0 0 0 76.7998 
334.227 -0.75092 0 -0.75092 -0.412344 0 0 0 76.7398 
334.248 -0.562774 0 -0.562774 -0.518707 0 0 0 76.7018 
334.261 -0.347132 0 -0.347132 -0.581054 0 0 0 76.6798 
334.268 -0.117182 0 -0.117182 -0.609739 0 0 0 76.6697 
287.67 38.4732 0 38.4732 97.6869 0 0 0 102.637 
300.135 36.6791 0 36.6791 77.7259 0 0 0 98.4453 
311.173 32.2199 0 32.2199 59.4621 0 0 0 94.3496 
319.827 26.2526 0 26.2526 44.2018 0 0 0 90.6614 
325.991 20.0404 0 20.0404 32.2263 0 0 0 87.5287 
330.089 14.4337 0 14.4337 23.1688 0 0 0 84.9699 
332.676 9.81375 0 9.81375 16.4502 0 0 0 82.9341 
334.232 6.24209 0 6.24209 11.5158 0 0 0 81.3442 
335.116 3.61578 0 3.61578 7.91336 0 0 0 80.1202 
335.57 1.77045 0 1.77045 5.29702 0 0 0 79.189 
335.759 0.535596 0 0.535596 3.40873 0 0 0 78.4883 
335.789 -0.240566 0 -0.240566 2.05691 0 0 0 77.9666 
335.729 -0.682789 0 -0.682789 1.09909 0 0 0 77.5824 
335.624 -0.888558 0 -0.888558 0.42907 0 0 0 77.3028 
335.502 -0.931297 0 -0.931297 -0.0323485 0 0 0 77.102 
335.383 -0.864676 0 -0.864676 -0.34398 0 0 0 76.9603 
335.279 -0.726891 0 -0.726891 -0.54903 0 0 0 76.8628 
335.196 -0.544515 0 -0.544515 -0.678539 0 0 0 76.7983 
335.138 -0.335775 0 -0.335775 -0.753847 0 0 0 76.7594 
335.109 -0.113333 0 -0.113333 -0.788295 0 0 0 76.7411 
286.601 28.9528 0 28.9528 97.1905 0 0 0 102.687 
298.047 27.7859 0 27.7859 79.2491 0 0 0 98.9481 
308.636 24.8285 0 24.8285 62.5028 0 0 0 95.2373 
317.551 20.6981 0 20.6981 47.9153 0 0 0 91.7776 
324.463 16.1793 0 16.1793 35.8905 0 0 0 88.7156 
329.461 11.9057 0 11.9057 26.363 0 0 0 86.1122 
332.862 8.24321 0 8.24321 19.0157 0 0 0 83.9649 
335.035 5.32242 0 5.32242 13.4554 0 0 0 82.2346 
336.32 3.12329 0 3.12329 9.30682 0 0 0 80.8655 
336.99 1.55045 0 1.55045 6.24895 0 0 0 79.7985 
337.252 0.483755 0 0.483755 4.02133 0 0 0 78.9777 
337.257 -0.193845 0 -0.193845 2.41836 0 0 0 78.3538 
337.111 -0.583678 0 -0.583678 1.28038 0 0 0 77.885 
336.89 -0.767514 0 -0.767514 0.4847 0 0 0 77.5369 
336.644 -0.808237 0 -0.808237 -0.0619611 0 0 0 77.2818 
336.406 -0.752439 0 -0.752439 -0.429754 0 0 0 77.0982 