# vtk DataFile Version 2.0
Generated by inSilico's base::io::vtk::LegacyWriter
ASCII
DATASET UNSTRUCTURED_GRID
POINTS 441 float
0 0 0 
0.05 0 0 
0.1 0 0 
0.15 0 0 
0.2 0 0 
0.25 0 0 
0.3 0 0 
0.35 0 0 
0.4 0 0 
0.45 0 0 
0.5 0 0 
0.55 0 0 
0.6 0 0 
0.65 0 0 
0.7 0 0 
0.75 0 0 
0.8 0 0 
0.85 0 0 
0.9 0 0 
0.95 0 0 
1 0 0 
0 0.05 0 
0.05 0.05 0 
0.1 0.05 0 
0.15 0.05 0 
0.2 0.05 0 
0.25 0.05 0 
0.3 0.05 0 
0.35 0.05 0 
0.4 0.05 0 
0.45 0.05 0 
0.5 0.05 0 
0.55 0.05 0 
0.6 0.05 0 
0.65 0.05 0 
0.7 0.05 0 
0.75 0.05 0 
0.8 0.05 0 
0.85 0.05 0 
0.9 0.05 0 
0.95 0.05 0 
1 0.05 0 
0 0.1 0 
0.05 0.1 0 
0.1 0.1 0 
0.15 0.1 0 
0.2 0.1 0 
0.25 0.1 0 
0.3 0.1 0 
0.35 0.1 0 
0.4 0.1 0 
0.45 0.1 0 
0.5 0.1 0 
0.55 0.1 0 
0.6 0.1 0 
0.65 0.1 0 
0.7 0.1 0 
0.75 0.1 0 
0.8 0.1 0 
0.85 0.1 0 
0.9 0.1 0 
0.95 0.1 0 
1 0.1 0 
0 0.15 0 
0.05 0.15 0 
0.1 0.15 0 
0.15 0.15 0 
0.2 0.15 0 
0.25 0.15 0 
0.3 0.15 0 
0.35 0.15 0 
0.4 0.15 0 
0.45 0.15 0 
0.5 0.15 0 
0.55 0.15 0 
0.6 0.15 0 
0.65 0.15 0 
0.7 0.15 0 
0.75 0.15 0 
0.8 0.15 0 
0.85 0.15 0 
0.9 0.15 0 
0.95 0.15 0 
1 0.15 0 
0 0.2 0 
0.05 0.2 0 
0.1 0.2 0 
0.15 0.2 0 
0.2 0.2 0 
0.25 0.2 0 
0.3 0.2 0 
0.35 0.2 0 
0.4 0.2 0 
0.45 0.2 0 
0.5 0.2 0 
0.55 0.2 0 
0.6 0.2 0 
0.65 0.2 0 
0.7 0.2 0 
0.75 0.2 0 
0.8 0.2 0 
0.85 0.2 0 
0.9 0.2 0 
0.95 0.2 0 
1 0.2 0 
0 0.25 0 
0.05 0.25 0 
0.1 0.25 0 
0.15 0.25 0 
0.2 0.25 0 
0.25 0.25 0 
0.3 0.25 0 
0.35 0.25 0 
0.4 0.25 0 
0.45 0.25 0 
0.5 0.25 0 
0.55 0.25 0 
0.6 0.25 0 
0.65 0.25 0 
0.7 0.25 0 
0.75 0.25 0 
0.8 0.25 0 
0.85 0.25 0 
0.9 0.25 0 
0.95 0.25 0 
1 0.25 0 
0 0.3 0 
0.05 0.3 0 
0.1 0.3 0 
0.15 0.3 0 
0.2 0.3 0 
0.25 0.3 0 
0.3 0.3 0 
0.35 0.3 0 
0.4 0.3 0 
0.45 0.3 0 
0.5 0.3 0 
0.55 0.3 0 
0.6 0.3 0 
0.65 0.3 0 
0.7 0.3 0 
0.75 0.3 0 
0.8 0.3 0 
0.85 0.3 0 
0.9 0.3 0 
0.95 0.3 0 
1 0.3 0 
0 0.35 0 
0.05 0.35 0 
0.1 0.35 0 
0.15 0.35 0 
0.2 0.35 0 
0.25 0.35 0 
0.3 0.35 0 
0.35 0.35 0 
0.4 0.35 0 
0.45 0.35 0 
0.5 0.35 0 
0.55 0.35 0 
0.6 0.35 0 
0.65 0.35 0 
0.7 0.35 0 
0.75 0.35 0 
0.8 0.35 0 
0.85 0.35 0 
0.9 0.35 0 
0.95 0.35 0 
1 0.35 0 
0 0.4 0 
0.05 0.4 0 
0.1 0.4 0 
0.15 0.4 0 
0.2 0.4 0 
0.25 0.4 0 
0.3 0.4 0 
0.35 0.4 0 
0.4 0.4 0 
0.45 0.4 0 
0.5 0.4 0 
0.55 0.4 0 
0.6 0.4 0 
0.65 0.4 0 
0.7 0.4 0 
0.75 0.4 0 
0.8 0.4 0 
0.85 0.4 0 
0.9 0.4 0 
0.95 0.4 0 
1 0.4 0 
0 0.45 0 
0.05 0.45 0 
0.1 0.45 0 
0.15 0.45 0 
0.2 0.45 0 
0.25 0.45 0 
0.3 0.45 0 
0.35 0.45 0 
0.4 0.45 0 
0.45 0.45 0 
0.5 0.45 0 
0.55 0.45 0 
0.6 0.45 0 
0.65 0.45 0 
0.7 0.45 0 
0.75 0.45 0 
0.8 0.45 0 
0.85 0.45 0 
0.9 0.45 0 
0.95 0.45 0 
1 0.45 0 
0 0.5 0 
0.05 0.5 0 
0.1 0.5 0 
0.15 0.5 0 
0.2 0.5 0 
0.25 0.5 0 
0.3 0.5 0 
0.35 0.5 0 
0.4 0.5 0 
0.45 0.5 0 
0.5 0.5 0 
0.55 0.5 0 
0.6 0.5 0 
0.65 0.5 0 
0.7 0.5 0 
0.75 0.5 0 
0.8 0.5 0 
0.85 0.5 0 
0.9 0.5 0 
0.95 0.5 0 
1 0.5 0 
0 0.55 0 
0.05 0.55 0 
0.1 0.55 0 
0.15 0.55 0 
0.2 0.55 0 
0.25 0.55 0 
0.3 0.55 0 
0.35 0.55 0 
0.4 0.55 0 
0.45 0.55 0 
0.5 0.55 0 
0.55 0.55 0 
0.6 0.55 0 
0.65 0.55 0 
0.7 0.55 0 
0.75 0.55 0 
0.8 0.55 0 
0.85 0.55 0 
0.9 0.55 0 
0.95 0.55 0 
1 0.55 0 
0 0.6 0 
0.05 0.6 0 
0.1 0.6 0 
0.15 0.6 0 
0.2 0.6 0 
0.25 0.6 0 
0.3 0.6 0 
0.35 0.6 0 
0.4 0.6 0 
0.45 0.6 0 
0.5 0.6 0 
0.55 0.6 0 
0.6 0.6 0 
0.65 0.6 0 
0.7 0.6 0 
0.75 0.6 0 
0.8 0.6 0 
0.85 0.6 0 
0.9 0.6 0 
0.95 0.6 0 
1 0.6 0 
0 0.65 0 
0.05 0.65 0 
0.1 0.65 0 
0.15 0.65 0 
0.2 0.65 0 
0.25 0.65 0 
0.3 0.65 0 
0.35 0.65 0 
0.4 0.65 0 
0.45 0.65 0 
0.5 0.65 0 
0.55 0.65 0 
0.6 0.65 0 
0.65 0.65 0 
0.7 0.65 0 
0.75 0.65 0 
0.8 0.65 0 
0.85 0.65 0 
0.9 0.65 0 
0.95 0.65 0 
1 0.65 0 
0 0.7 0 
0.05 0.7 0 
0.1 0.7 0 
0.15 0.7 0 
0.2 0.7 0 
0.25 0.7 0 
0.3 0.7 0 
0.35 0.7 0 
0.4 0.7 0 
0.45 0.7 0 
0.5 0.7 0 
0.55 0.7 0 
0.6 0.7 0 
0.65 0.7 0 
0.7 0.7 0 
0.75 0.7 0 
0.8 0.7 0 
0.85 0.7 0 
0.9 0.7 0 
0.95 0.7 0 
1 0.7 0 
0 0.75 0 
0.05 0.75 0 
0.1 0.75 0 
0.15 0.75 0 
0.2 0.75 0 
0.25 0.75 0 
0.3 0.75 0 
0.35 0.75 0 
0.4 0.75 0 
0.45 0.75 0 
0.5 0.75 0 
0.55 0.75 0 
0.6 0.75 0 
0.65 0.75 0 
0.7 0.75 0 
0.75 0.75 0 
0.8 0.75 0 
0.85 0.75 0 
0.9 0.75 0 
0.95 0.75 0 
1 0.75 0 
0 0.8 0 
0.05 0.8 0 
0.1 0.8 0 
0.15 0.8 0 
0.2 0.8 0 
0.25 0.8 0 
0.3 0.8 0 
0.35 0.8 0 
0.4 0.8 0 
0.45 0.8 0 
0.5 0.8 0 
0.55 0.8 0 
0.6 0.8 0 
0.65 0.8 0 
0.7 0.8 0 
0.75 0.8 0 
0.8 0.8 0 
0.85 0.8 0 
0.9 0.8 0 
0.95 0.8 0 
1 0.8 0 
0 0.85 0 
0.05 0.85 0 
0.1 0.85 0 
0.15 0.85 0 
0.2 0.85 0 
0.25 0.85 0 
0.3 0.85 0 
0.35 0.85 0 
0.4 0.85 0 
0.45 0.85 0 
0.5 0.85 0 
0.55 0.85 0 
0.6 0.85 0 
0.65 0.85 0 
0.7 0.85 0 
0.75 0.85 0 
0.8 0.85 0 
0.85 0.85 0 
0.9 0.85 0 
0.95 0.85 0 
1 0.85 0 
0 0.9 0 
0.05 0.9 0 
0.1 0.9 0 
0.15 0.9 0 
0.2 0.9 0 
0.25 0.9 0 
0.3 0.9 0 
0.35 0.9 0 
0.4 0.9 0 
0.45 0.9 0 
0.5 0.9 0 
0.55 0.9 0 
0.6 0.9 0 
0.65 0.9 0 
0.7 0.9 0 
0.75 0.9 0 
0.8 0.9 0 
0.85 0.9 0 
0.9 0.9 0 
0.95 0.9 0 
1 0.9 0 
0 0.95 0 
0.05 0.95 0 
0.1 0.95 0 
0.15 0.95 0 
0.2 0.95 0 
0.25 0.95 0 
0.3 0.95 0 
0.35 0.95 0 
0.4 0.95 0 
0.45 0.95 0 
0.5 0.95 0 
0.55 0.95 0 
0.6 0.95 0 
0.65 0.95 0 
0.7 0.95 0 
0.75 0.95 0 
0.8 0.95 0 
0.85 0.95 0 
0.9 0.95 0 
0.95 0.95 0 
1 0.95 0 
0 1 0 
0.05 1 0 
0.1 1 0 
0.15 1 0 
0.2 1 0 
0.25 1 0 
0.3 1 0 
0.35 1 0 
0.4 1 0 
0.45 1 0 
0.5 1 0 
0.55 1 0 
0.6 1 0 
0.65 1 0 
0.7 1 0 
0.75 1 0 
0.8 1 0 
0.85 1 0 
0.9 1 0 
0.95 1 0 
1 1 0 
CELLS 400 2000
4 0 1 22 21 
4 1 2 23 22 
4 2 3 24 23 
4 3 4 25 24 
4 4 5 26 25 
4 5 6 27 26 
4 6 7 28 27 
4 7 8 29 28 
4 8 9 30 29 
4 9 10 31 30 
4 10 11 32 31 
4 11 12 33 32 
4 12 13 34 33 
4 13 14 35 34 
4 14 15 36 35 
4 15 16 37 36 
4 16 17 38 37 
4 17 18 39 38 
4 18 19 40 39 
4 19 20 41 40 
4 21 22 43 42 
4 22 23 44 43 
4 23 24 45 44 
4 24 25 46 45 
4 25 26 47 46 
4 26 27 48 47 
4 27 28 49 48 
4 28 29 50 49 
4 29 30 51 50 
4 30 31 52 51 
4 31 32 53 52 
4 32 33 54 53 
4 33 34 55 54 
4 34 35 56 55 
4 35 36 57 56 
4 36 37 58 57 
4 37 38 59 58 
4 38 39 60 59 
4 39 40 61 60 
4 40 41 62 61 
4 42 43 64 63 
4 43 44 65 64 
4 44 45 66 65 
4 45 46 67 66 
4 46 47 68 67 
4 47 48 69 68 
4 48 49 70 69 
4 49 50 71 70 
4 50 51 72 71 
4 51 52 73 72 
4 52 53 74 73 
4 53 54 75 74 
4 54 55 76 75 
4 55 56 77 76 
4 56 57 78 77 
4 57 58 79 78 
4 58 59 80 79 
4 59 60 81 80 
4 60 61 82 81 
4 61 62 83 82 
4 63 64 85 84 
4 64 65 86 85 
4 65 66 87 86 
4 66 67 88 87 
4 67 68 89 88 
4 68 69 90 89 
4 69 70 91 90 
4 70 71 92 91 
4 71 72 93 92 
4 72 73 94 93 
4 73 74 95 94 
4 74 75 96 95 
4 75 76 97 96 
4 76 77 98 97 
4 77 78 99 98 
4 78 79 100 99 
4 79 80 101 100 
4 80 81 102 101 
4 81 82 103 102 
4 82 83 104 103 
4 84 85 106 105 
4 85 86 107 106 
4 86 87 108 107 
4 87 88 109 108 
4 88 89 110 109 
4 89 90 111 110 
4 90 91 112 111 
4 91 92 113 112 
4 92 93 114 113 
4 93 94 115 114 
4 94 95 116 115 
4 95 96 117 116 
4 96 97 118 117 
4 97 98 119 118 
4 98 99 120 119 
4 99 100 121 120 
4 100 101 122 121 
4 101 102 123 122 
4 102 103 124 123 
4 103 104 125 124 
4 105 106 127 126 
4 106 107 128 127 
4 107 108 129 128 
4 108 109 130 129 
4 109 110 131 130 
4 110 111 132 131 
4 111 112 133 132 
4 112 113 134 133 
4 113 114 135 134 
4 114 115 136 135 
4 115 116 137 136 
4 116 117 138 137 
4 117 118 139 138 
4 118 119 140 139 
4 119 120 141 140 
4 120 121 142 141 
4 121 122 143 142 
4 122 123 144 143 
4 123 124 145 144 
4 124 125 146 145 
4 126 127 148 147 
4 127 128 149 148 
4 128 129 150 149 
4 129 130 151 150 
4 130 131 152 151 
4 131 132 153 152 
4 132 133 154 153 
4 133 134 155 154 
4 134 135 156 155 
4 135 136 157 156 
4 136 137 158 157 
4 137 138 159 158 
4 138 139 160 159 
4 139 140 161 160 
4 140 141 162 161 
4 141 142 163 162 
4 142 143 164 163 
4 143 144 165 164 
4 144 145 166 165 
4 145 146 167 166 
4 147 148 169 168 
4 148 149 170 169 
4 149 150 171 170 
4 150 151 172 171 
4 151 152 173 172 
4 152 153 174 173 
4 153 154 175 174 
4 154 155 176 175 
4 155 156 177 176 
4 156 157 178 177 
4 157 158 179 178 
4 158 159 180 179 
4 159 160 181 180 
4 160 161 182 181 
4 161 162 183 182 
4 162 163 184 183 
4 163 164 185 184 
4 164 165 186 185 
4 165 166 187 186 
4 166 167 188 187 
4 168 169 190 189 
4 169 170 191 190 
4 170 171 192 191 
4 171 172 193 192 
4 172 173 194 193 
4 173 174 195 194 
4 174 175 196 195 
4 175 176 197 196 
4 176 177 198 197 
4 177 178 199 198 
4 178 179 200 199 
4 179 180 201 200 
4 180 181 202 201 
4 181 182 203 202 
4 182 183 204 203 
4 183 184 205 204 
4 184 185 206 205 
4 185 186 207 206 
4 186 187 208 207 
4 187 188 209 208 
4 189 190 211 210 
4 190 191 212 211 
4 191 192 213 212 
4 192 193 214 213 
4 193 194 215 214 
4 194 195 216 215 
4 195 196 217 216 
4 196 197 218 217 
4 197 198 219 218 
4 198 199 220 219 
4 199 200 221 220 
4 200 201 222 221 
4 201 202 223 222 
4 202 203 224 223 
4 203 204 225 224 
4 204 205 226 225 
4 205 206 227 226 
4 206 207 228 227 
4 207 208 229 228 
4 208 209 230 229 
4 210 211 232 231 
4 211 212 233 232 
4 212 213 234 233 
4 213 214 235 234 
4 214 215 236 235 
4 215 216 237 236 
4 216 217 238 237 
4 217 218 239 238 
4 218 219 240 239 
4 219 220 241 240 
4 220 221 242 241 
4 221 222 243 242 
4 222 223 244 243 
4 223 224 245 244 
4 224 225 246 245 
4 225 226 247 246 
4 226 227 248 247 
4 227 228 249 248 
4 228 229 250 249 
4 229 230 251 250 
4 231 232 253 252 
4 232 233 254 253 
4 233 234 255 254 
4 234 235 256 255 
4 235 236 257 256 
4 236 237 258 257 
4 237 238 259 258 
4 238 239 260 259 
4 239 240 261 260 
4 240 241 262 261 
4 241 242 263 262 
4 242 243 264 263 
4 243 244 265 264 
4 244 245 266 265 
4 245 246 267 266 
4 246 247 268 267 
4 247 248 269 268 
4 248 249 270 269 
4 249 250 271 270 
4 250 251 272 271 
4 252 253 274 273 
4 253 254 275 274 
4 254 255 276 275 
4 255 256 277 276 
4 256 257 278 277 
4 257 258 279 278 
4 258 259 280 279 
4 259 260 281 280 
4 260 261 282 281 
4 261 262 283 282 
4 262 263 284 283 
4 263 264 285 284 
4 264 265 286 285 
4 265 266 287 286 
4 266 267 288 287 
4 267 268 289 288 
4 268 269 290 289 
4 269 270 291 290 
4 270 271 292 291 
4 271 272 293 292 
4 273 274 295 294 
4 274 275 296 295 
4 275 276 297 296 
4 276 277 298 297 
4 277 278 299 298 
4 278 279 300 299 
4 279 280 301 300 
4 280 281 302 301 
4 281 282 303 302 
4 282 283 304 303 
4 283 284 305 304 
4 284 285 306 305 
4 285 286 307 306 
4 286 287 308 307 
4 287 288 309 308 
4 288 289 310 309 
4 289 290 311 310 
4 290 291 312 311 
4 291 292 313 312 
4 292 293 314 313 
4 294 295 316 315 
4 295 296 317 316 
4 296 297 318 317 
4 297 298 319 318 
4 298 299 320 319 
4 299 300 321 320 
4 300 301 322 321 
4 301 302 323 322 
4 302 303 324 323 
4 303 304 325 324 
4 304 305 326 325 
4 305 306 327 326 
4 306 307 328 327 
4 307 308 329 328 
4 308 309 330 329 
4 309 310 331 330 
4 310 311 332 331 
4 311 312 333 332 
4 312 313 334 333 
4 313 314 335 334 
4 315 316 337 336 
4 316 317 338 337 
4 317 318 339 338 
4 318 319 340 339 
4 319 320 341 340 
4 320 321 342 341 
4 321 322 343 342 
4 322 323 344 343 
4 323 324 345 344 
4 324 325 346 345 
4 325 326 347 346 
4 326 327 348 347 
4 327 328 349 348 
4 328 329 350 349 
4 329 330 351 350 
4 330 331 352 351 
4 331 332 353 352 
4 332 333 354 353 
4 333 334 355 354 
4 334 335 356 355 
4 336 337 358 357 
4 337 338 359 358 
4 338 339 360 359 
4 339 340 361 360 
4 340 341 362 361 
4 341 342 363 362 
4 342 343 364 363 
4 343 344 365 364 
4 344 345 366 365 
4 345 346 367 366 
4 346 347 368 367 
4 347 348 369 368 
4 348 349 370 369 
4 349 350 371 370 
4 350 351 372 371 
4 351 352 373 372 
4 352 353 374 373 
4 353 354 375 374 
4 354 355 376 375 
4 355 356 377 376 
4 357 358 379 378 
4 358 359 380 379 
4 359 360 381 380 
4 360 361 382 381 
4 361 362 383 382 
4 362 363 384 383 
4 363 364 385 384 
4 364 365 386 385 
4 365 366 387 386 
4 366 367 388 387 
4 367 368 389 388 
4 368 369 390 389 
4 369 370 391 390 
4 370 371 392 391 
4 371 372 393 392 
4 372 373 394 393 
4 373 374 395 394 
4 374 375 396 395 
4 375 376 397 396 
4 376 377 398 397 
4 378 379 400 399 
4 379 380 401 400 
4 380 381 402 401 
4 381 382 403 402 
4 382 383 404 403 
4 383 384 405 404 
4 384 385 406 405 
4 385 386 407 406 
4 386 387 408 407 
4 387 388 409 408 
4 388 389 410 409 
4 389 390 411 410 
4 390 391 412 411 
4 391 392 413 412 
4 392 393 414 413 
4 393 394 415 414 
4 394 395 416 415 
4 395 396 417 416 
4 396 397 418 417 
4 397 398 419 418 
4 399 400 421 420 
4 400 401 422 421 
4 401 402 423 422 
4 402 403 424 423 
4 403 404 425 424 
4 404 405 426 425 
4 405 406 427 426 
4 406 407 428 427 
4 407 408 429 428 
4 408 409 430 429 
4 409 410 431 430 
4 410 411 432 431 
4 411 412 433 432 
4 412 413 434 433 
4 413 414 435 434 
4 414 415 436 435 
4 415 416 437 436 
4 416 417 438 437 
4 417 418 439 438 
4 418 419 440 439 
CELL_TYPES 400
9
9
9
9
9
9
9
9
9
9
9
9
9
9
9
9
9
9
9
9
9
9
9
9
9
9
9
9
9
9
9
9
9
9
9
9
9
9
9
9
9
9
9
9
9
9
9
9
9
9
9
9
9
9
9
9
9
9
9
9
9
9
9
9
9
9
9
9
9
9
9
9
9
9
9
9
9
9
9
9
9
9
9
9
9
9
9
9
9
9
9
9
9
9
9
9
9
9
9
9
9
9
9
9
9
9
9
9
9
9
9
9
9
9
9
9
9
9
9
9
9
9
9
9
9
9
9
9
9
9
9
9
9
9
9
9
9
9
9
9
9
9
9
9
9
9
9
9
9
9
9
9
9
9
9
9
9
9
9
9
9
9
9
9
9
9
9
9
9
9
9
9
9
9
9
9
9
9
9
9
9
9
9
9
9
9
9
9
9
9
9
9
9
9
9
9
9
9
9
9
9
9
9
9
9
9
9
9
9
9
9
9
9
9
9
9
9
9
9
9
9
9
9
9
9
9
9
9
9
9
9
9
9
9
9
9
9
9
9
9
9
9
9
9
9
9
9
9
9
9
9
9
9
9
9
9
9
9
9
9
9
9
9
9
9
9
9
9
9
9
9
9
9
9
9
9
9
9
9
9
9
9
9
9
9
9
9
9
9
9
9
9
9
9
9
9
9
9
9
9
9
9
9
9
9
9
9
9
9
9
9
9
9
9
9
9
9
9
9
9
9
9
9
9
9
9
9
9
9
9
9
9
9
9
9
9
9
9
9
9
9
9
9
9
9
9
9
9
9
9
9
9
9
9
9
9
9
9
9
9
9
9
9
9
9
9
9
9
9
9
9
9
9
9
9
9
9
9
9
9
9
9
9
9
9
9
9
9
9
9
9
9
9
9
9
9
9
9
9
9
POINT_DATA 441
VECTORS disp float 
0 0 0 
0.00193401 0.00174515 0 
0.00330365 0.00277612 0 
0.00451801 0.00350095 0 
0.00567649 0.00403833 0 
0.00681589 0.00444387 0 
0.00795346 0.00475124 0 
0.00909807 0.00498363 0 
0.0102542 0.00515812 0 
0.0114241 0.00528778 0 
0.0126081 0.00538283 0 
0.013806 0.00545134 0 
0.0150169 0.00549974 0 
0.0162395 0.0055331 0 
0.0174723 0.00555542 0 
0.0187138 0.00556985 0 
0.0199626 0.00557877 0 
0.021217 0.00558402 0 
0.0224757 0.00558688 0 
0.0237372 0.00558826 0 
0.025 0.00558867 0 
0 0 0 
0.00122678 0.00120756 0 
0.00264714 0.00222875 0 
0.00398059 0.00297622 0 
0.00524729 0.0035279 0 
0.00647636 0.00393981 0 
0.0076868 0.00424848 0 
0.00889024 0.00447913 0 
0.0100937 0.00465016 0 
0.0113013 0.00477546 0 
0.0125153 0.00486583 0 
0.0137367 0.00492969 0 
0.0149659 0.00497368 0 
0.0162026 0.00500305 0 
0.0174461 0.00502186 0 
0.0186956 0.0050333 0 
0.0199503 0.00503979 0 
0.0212091 0.00504315 0 
0.022471 0.00504468 0 
0.023735 0.00504526 0 
0.025 0.00504539 0 
0 0 0 
0.00107956 0.000916627 0 
0.00232534 0.00177594 0 
0.00362362 0.00247554 0 
0.00491283 0.00301487 0 
0.00618287 0.00342365 0 
0.00743756 0.00373088 0 
0.00868279 0.00395984 0 
0.00992354 0.00412858 0 
0.0111634 0.00425116 0 
0.0124048 0.00433855 0 
0.0136492 0.0043994 0 
0.0148973 0.0044405 0 
0.0161495 0.00446719 0 
0.0174056 0.00448363 0 
0.0186654 0.00449302 0 
0.0199283 0.00449783 0 
0.0211939 0.00449988 0 
0.0224615 0.00450047 0 
0.0237304 0.00450049 0 
0.025 0.00450045 0 
0 0 0 
0.00102979 0.00072589 0 
0.00218127 0.00142745 0 
0.00341365 0.002037 0 
0.00467966 0.00253174 0 
0.00595372 0.00291843 0 
0.00722633 0.00321388 0 
0.00849536 0.00343577 0 
0.00976143 0.00359966 0 
0.0110258 0.00371853 0 
0.0122899 0.00380287 0 
0.0135545 0.00386112 0 
0.0148203 0.00389999 0 
0.0160878 0.00392476 0 
0.0173569 0.00393959 0 
0.0186278 0.00394766 0 
0.0199002 0.00395141 0 
0.021174 0.00395265 0 
0.0224487 0.00395268 0 
0.0237242 0.00395236 0 
0.025 0.0039522 0 
0 0 0 
0.00100696 0.000581262 0 
0.00210978 0.00114819 0 
0.00329189 0.00165863 0 
0.00452491 0.00208959 0 
0.00578529 0.00243722 0 
0.00705857 0.00270873 0 
0.00833726 0.00291554 0 
0.00961787 0.0030696 0 
0.010899 0.00318179 0 
0.0121801 0.00326148 0 
0.0134612 0.00331641 0 
0.0147424 0.00335289 0 
0.0160238 0.00337593 0 
0.0173054 0.0033895 0 
0.0185873 0.00339667 0 
0.0198694 0.00339979 0 
0.0211518 0.0034006 0 
0.0224344 0.00340035 0 
0.0237172 0.00339988 0 
0.025 0.00339967 0 
0 0 0 
0.000994766 0.000461342 0 
0.00207049 0.000912499 0 
0.00321901 0.0013268 0 
0.0044233 0.00168614 0 
0.00566538 0.00198363 0 
0.00693102 0.00222097 0 
0.0082105 0.00240467 0 
0.0094977 0.00254307 0 
0.0107889 0.00264463 0 
0.0120821 0.00271711 0 
0.0133758 0.00276719 0 
0.0146695 0.00280045 0 
0.0159628 0.00282142 0 
0.0172554 0.00283371 0 
0.0185474 0.00284013 0 
0.0198387 0.00284284 0 
0.0211296 0.00284345 0 
0.02242 0.00284313 0 
0.0237101 0.00284264 0 
0.025 0.00284243 0 
0 0 0 
0.000987746 0.000356198 0 
0.00204734 0.000704757 0 
0.0031739 0.0010285 0 
0.00435646 0.00131434 0 
0.00558171 0.0015556 0 
0.00683727 0.00175153 0 
0.00811315 0.00190543 0 
0.009402 0.00202273 0 
0.0106986 0.00210956 0 
0.0119995 0.00217192 0 
0.0133024 0.00221521 0 
0.0146057 0.00224405 0 
0.0159086 0.00226227 0 
0.0172104 0.00227296 0 
0.0185111 0.00227855 0 
0.0198106 0.00228091 0 
0.021109 0.00228144 0 
0.0224065 0.00228115 0 
0.0237034 0.00228071 0 
0.025 0.00228053 0 
0 0 0 
0.000983574 0.000260428 0 
0.00203326 0.000515286 0 
0.00314559 0.000753593 0 
0.00431281 0.000966436 0 
0.00552477 0.00114855 0 
0.00677096 0.00129845 0 
0.00804193 0.00141762 0 
0.00932994 0.00150935 0 
0.010629 0.00157782 0 
0.0119346 0.0016273 0 
0.0132436 0.00166183 0 
0.0145539 0.00168492 0 
0.015864 0.00169957 0 
0.0171731 0.0017082 0 
0.0184808 0.00171274 0 
0.0197869 0.00171468 0 
0.0210916 0.00171513 0 
0.0223951 0.00171493 0 
0.0236978 0.00171459 0 
0.025 0.00171445 0 
0 0 0 
0.00098113 0.000170652 0 
0.00202482 0.000337641 0 
0.00312826 0.000494401 0 
0.00428542 0.000635417 0 
0.00548805 0.000757153 0 
0.00672704 0.000858289 0 
0.0079936 0.000939388 0 
0.00927998 0.00100229 0 
0.0105798 0.00104954 0 
0.011888 0.00108387 0 
0.0132009 0.00110792 0 
0.0145159 0.00112408 0 
0.015831 0.00113436 0 
0.0171453 0.00114045 0 
0.018458 0.00114367 0 
0.0197691 0.00114506 0 
0.0210785 0.00114541 0 
0.0223865 0.00114529 0 
0.0236935 0.00114507 0 
0.025 0.00114497 0 
0 0 0 
0.000979844 8.44775e-05 0 
0.0020203 0.000167135 0 
0.00311886 0.000244892 0 
0.00427034 0.000315112 0 
0.00546748 0.000376037 0 
0.00670202 0.000426927 0 
0.00796563 0.000467946 0 
0.00925067 0.000499912 0 
0.0105506 0.000524016 0 
0.0118601 0.000541588 0 
0.0131751 0.000553938 0 
0.0144927 0.000562254 0 
0.0158108 0.000567562 0 
0.0171281 0.000570712 0 
0.018444 0.000572387 0 
0.019758 0.00057312 0 
0.0210703 0.000573312 0 
0.0223811 0.000573256 0 
0.0236908 0.000573148 0 
0.025 0.000573099 0 
0 0 0 
0.000979442 -5.17537e-19 0 
0.00201887 5.46823e-18 0 
0.00311588 1.72727e-17 0 
0.00426552 3.44336e-17 0 
0.00546085 5.43456e-17 0 
0.0066939 7.77911e-17 0 
0.00795648 1.07863e-16 0 
0.00924102 1.44758e-16 0 
0.0105409 1.97474e-16 0 
0.0118508 2.60043e-16 0 
0.0131665 3.16492e-16 0 
0.0144849 3.6933e-16 0 
0.015804 4.10587e-16 0 
0.0171224 4.64506e-16 0 
0.0184392 5.17144e-16 0 
0.0197542 5.58215e-16 0 
0.0210675 5.99164e-16 0 
0.0223793 6.17463e-16 0 
0.0236899 6.21099e-16 0 
0.025 6.24988e-16 0 
0 0 0 
0.000979844 -8.44775e-05 0 
0.0020203 -0.000167135 0 
0.00311886 -0.000244892 0 
0.00427034 -0.000315112 0 
0.00546748 -0.000376037 0 
0.00670202 -0.000426927 0 
0.00796563 -0.000467946 0 
0.00925067 -0.000499912 0 
0.0105506 -0.000524016 0 
0.0118601 -0.000541588 0 
0.0131751 -0.000553938 0 
0.0144927 -0.000562254 0 
0.0158108 -0.000567562 0 
0.0171281 -0.000570712 0 
0.018444 -0.000572387 0 
0.019758 -0.00057312 0 
0.0210703 -0.000573312 0 
0.0223811 -0.000573256 0 
0.0236908 -0.000573148 0 
0.025 -0.000573099 0 
0 0 0 
0.00098113 -0.000170652 0 
0.00202482 -0.000337641 0 
0.00312826 -0.000494401 0 
0.00428542 -0.000635417 0 
0.00548805 -0.000757153 0 
0.00672704 -0.000858289 0 
0.0079936 -0.000939388 0 
0.00927998 -0.00100229 0 
0.0105798 -0.00104954 0 
0.011888 -0.00108387 0 
0.0132009 -0.00110792 0 
0.0145159 -0.00112408 0 
0.015831 -0.00113436 0 
0.0171453 -0.00114045 0 
0.018458 -0.00114367 0 
0.0197691 -0.00114506 0 
0.0210785 -0.00114541 0 
0.0223865 -0.00114529 0 
0.0236935 -0.00114507 0 
0.025 -0.00114497 0 
0 0 0 
0.000983574 -0.000260428 0 
0.00203326 -0.000515286 0 
0.00314559 -0.000753593 0 
0.00431281 -0.000966436 0 
0.00552477 -0.00114855 0 
0.00677096 -0.00129845 0 
0.00804193 -0.00141762 0 
0.00932994 -0.00150935 0 
0.010629 -0.00157782 0 
0.0119346 -0.0016273 0 
0.0132436 -0.00166183 0 
0.0145539 -0.00168492 0 
0.015864 -0.00169957 0 
0.0171731 -0.0017082 0 
0.0184808 -0.00171274 0 
0.0197869 -0.00171468 0 
0.0210916 -0.00171513 0 
0.0223951 -0.00171493 0 
0.0236978 -0.00171459 0 
0.025 -0.00171445 0 
0 0 0 
0.000987746 -0.000356198 0 
0.00204734 -0.000704757 0 
0.0031739 -0.0010285 0 
0.00435646 -0.00131434 0 
0.00558171 -0.0015556 0 
0.00683727 -0.00175153 0 
0.00811315 -0.00190543 0 
0.009402 -0.00202273 0 
0.0106986 -0.00210956 0 
0.0119995 -0.00217192 0 
0.0133024 -0.00221521 0 
0.0146057 -0.00224405 0 
0.0159086 -0.00226227 0 
0.0172104 -0.00227296 0 
0.0185111 -0.00227855 0 
0.0198106 -0.00228091 0 
0.021109 -0.00228144 0 
0.0224065 -0.00228115 0 
0.0237034 -0.00228071 0 
0.025 -0.00228053 0 
0 0 0 
0.000994766 -0.000461342 0 
0.00207049 -0.000912499 0 
0.00321901 -0.0013268 0 
0.0044233 -0.00168614 0 
0.00566538 -0.00198363 0 
0.00693102 -0.00222097 0 
0.0082105 -0.00240467 0 
0.0094977 -0.00254307 0 
0.0107889 -0.00264463 0 
0.0120821 -0.00271711 0 
0.0133758 -0.00276719 0 
0.0146695 -0.00280045 0 
0.0159628 -0.00282142 0 
0.0172554 -0.00283371 0 
0.0185474 -0.00284013 0 
0.0198387 -0.00284284 0 
0.0211296 -0.00284345 0 
0.02242 -0.00284313 0 
0.0237101 -0.00284264 0 
0.025 -0.00284243 0 
0 0 0 
0.00100696 -0.000581262 0 
0.00210978 -0.00114819 0 
0.00329189 -0.00165863 0 
0.00452491 -0.00208959 0 
0.00578529 -0.00243722 0 
0.00705857 -0.00270873 0 
0.00833726 -0.00291554 0 
0.00961787 -0.0030696 0 
0.010899 -0.00318179 0 
0.0121801 -0.00326148 0 
0.0134612 -0.00331641 0 
0.0147424 -0.00335289 0 
0.0160238 -0.00337593 0 
0.0173054 -0.0033895 0 
0.0185873 -0.00339667 0 
0.0198694 -0.00339979 0 
0.0211518 -0.0034006 0 
0.0224344 -0.00340035 0 
0.0237172 -0.00339988 0 
0.025 -0.00339967 0 
0 0 0 
0.00102979 -0.00072589 0 
0.00218127 -0.00142745 0 
0.00341365 -0.002037 0 
0.00467966 -0.00253174 0 
0.00595372 -0.00291843 0 
0.00722633 -0.00321388 0 
0.00849536 -0.00343577 0 
0.00976143 -0.00359966 0 
0.0110258 -0.00371853 0 
0.0122899 -0.00380287 0 
0.0135545 -0.00386112 0 
0.0148203 -0.00389999 0 
0.0160878 -0.00392476 0 
0.0173569 -0.00393959 0 
0.0186278 -0.00394766 0 
0.0199002 -0.00395141 0 
0.021174 -0.00395265 0 
0.0224487 -0.00395268 0 
0.0237242 -0.00395236 0 
0.025 -0.0039522 0 
0 0 0 
0.00107956 -0.000916627 0 
0.00232534 -0.00177594 0 
0.00362362 -0.00247554 0 
0.00491283 -0.00301487 0 
0.00618287 -0.00342365 0 
0.00743756 -0.00373088 0 
0.00868279 -0.00395984 0 
0.00992354 -0.00412858 0 
0.0111634 -0.00425116 0 
0.0124048 -0.00433855 0 
0.0136492 -0.0043994 0 
0.0148973 -0.0044405 0 
0.0161495 -0.00446719 0 
0.0174056 -0.00448363 0 
0.0186654 -0.00449302 0 
0.0199283 -0.00449783 0 
0.0211939 -0.00449988 0 
0.0224615 -0.00450047 0 
0.0237304 -0.00450049 0 
0.025 -0.00450045 0 
0 0 0 
0.00122678 -0.00120756 0 
0.00264714 -0.00222875 0 
0.00398059 -0.00297622 0 
0.00524729 -0.0035279 0 
0.00647636 -0.00393981 0 
0.0076868 -0.00424848 0 
0.00889024 -0.00447913 0 
0.0100937 -0.00465016 0 
0.0113013 -0.00477546 0 
0.0125153 -0.00486583 0 
0.0137367 -0.00492969 0 
0.0149659 -0.00497368 0 
0.0162026 -0.00500305 0 
0.0174461 -0.00502186 0 
0.0186956 -0.0050333 0 
0.0199503 -0.00503979 0 
0.0212091 -0.00504315 0 
0.022471 -0.00504468 0 
0.023735 -0.00504526 0 
0.025 -0.00504539 0 
0 0 0 
0.00193401 -0.00174515 0 
0.00330365 -0.00277612 0 
0.00451801 -0.00350095 0 
0.00567649 -0.00403833 0 
0.00681589 -0.00444387 0 
0.00795346 -0.00475124 0 
0.00909807 -0.00498363 0 
0.0102542 -0.00515812 0 
0.0114241 -0.00528778 0 
0.0126081 -0.00538283 0 
0.013806 -0.00545134 0 
0.0150169 -0.00549974 0 
0.0162395 -0.0055331 0 
0.0174723 -0.00555542 0 
0.0187138 -0.00556985 0 
0.0199626 -0.00557877 0 
0.021217 -0.00558402 0 
0.0224757 -0.00558688 0 
0.0237372 -0.00558826 0 
0.025 -0.00558867 0 
CELL_DATA 400
TENSORS sigma float 
36.8565 7.59866 0 7.59866 3.53546 0 0 0 11.8065 
30.9724 2.61133 0 2.61133 0.949797 0 0 0 9.36456 
27.9244 1.14785 0 1.14785 0.33184 0 0 0 8.30305 
26.4512 0.550131 0 0.550131 0.107271 0 0 0 7.81047 
25.7692 0.252605 0 0.252605 0.000896282 0 0 0 7.58124 
25.5079 0.0881399 0 0.0881399 -0.0573749 0 0 0 7.48796 
25.481 -0.00702377 0 -0.00702377 -0.092049 0 0 0 7.46952 
25.5859 -0.0620691 0 -0.0620691 -0.113748 0 0 0 7.49307 
25.7617 -0.0922499 0 -0.0922499 -0.127763 0 0 0 7.53945 
25.9709 -0.106379 0 -0.106379 -0.136986 0 0 0 7.59693 
26.1897 -0.109946 0 -0.109946 -0.143109 0 0 0 7.6581 
26.403 -0.106555 0 -0.106555 -0.147172 0 0 0 7.71829 
26.6011 -0.0986534 0 -0.0986534 -0.149843 0 0 0 7.77454 
26.7785 -0.0879237 0 -0.0879237 -0.151564 0 0 0 7.82509 
26.932 -0.0755175 0 -0.0755175 -0.15264 0 0 0 7.86893 
27.06 -0.062204 0 -0.062204 -0.153283 0 0 0 7.90557 
27.162 -0.0484717 0 -0.0484717 -0.153646 0 0 0 7.93481 
27.2381 -0.0346034 0 -0.0346034 -0.153834 0 0 0 7.95665 
27.2885 -0.0207355 0 -0.0207355 -0.153921 0 0 0 7.97114 
27.3137 -0.00690557 0 -0.00690557 -0.153954 0 0 0 7.97836 
30.458 7.45696 0 7.45696 9.19275 0 0 0 11.7148 
30.1529 5.33854 0 5.33854 3.28889 0 0 0 9.83531 
29.0763 2.96642 0 2.96642 1.4 0 0 0 8.9583 
28.0169 1.58079 0 1.58079 0.649721 0 0 0 8.42691 
27.2785 0.789375 0 0.789375 0.295537 0 0 0 8.10658 
26.8349 0.324231 0 0.324231 0.106012 0 0 0 7.92076 
26.6051 0.0461881 0 0.0461881 -0.00459067 0 0 0 7.82052 
26.5193 -0.11849 0 -0.11849 -0.0729448 0 0 0 7.77471 
26.5263 -0.211422 0 -0.211422 -0.116671 0 0 0 7.76319 
26.59 -0.25765 0 -0.25765 -0.145082 0 0 0 7.77275 
26.6854 -0.273088 0 -0.273088 -0.163517 0 0 0 7.79454 
26.7954 -0.268261 0 -0.268261 -0.175259 0 0 0 7.82258 
26.9082 -0.250308 0 -0.250308 -0.182451 0 0 0 7.85282 
27.0159 -0.224124 0 -0.224124 -0.186562 0 0 0 7.88256 
27.1134 -0.193041 0 -0.193041 -0.188636 0 0 0 7.90998 
27.1974 -0.159276 0 -0.159276 -0.18943 0 0 0 7.93393 
27.266 -0.124235 0 -0.124235 -0.189495 0 0 0 7.95366 
27.3181 -0.088739 0 -0.088739 -0.189229 0 0 0 7.96874 
27.3531 -0.0531905 0 -0.0531905 -0.188908 0 0 0 7.97889 
27.3706 -0.0177162 0 -0.0177162 -0.188705 0 0 0 7.984 
28.0505 6.10175 0 6.10175 9.82993 0 0 0 11.2255 
28.7386 5.22151 0 5.22151 5.76088 0 0 0 10.1888 
28.7726 3.6711 0 3.6711 3.09767 0 0 0 9.3908 
28.4301 2.29568 0 2.29568 1.68967 0 0 0 8.8646 
28.0083 1.31415 0 1.31415 0.927686 0 0 0 8.51088 
27.6537 0.657929 0 0.657929 0.490285 0 0 0 8.27483 
27.4025 0.230975 0 0.230975 0.224866 0 0 0 8.12089 
27.2467 -0.0396867 0 -0.0396867 0.0568357 0 0 0 8.02418 
27.1656 -0.203958 0 -0.203958 -0.0524825 0 0 0 7.96707 
27.1385 -0.295521 0 -0.295521 -0.124494 0 0 0 7.937 
27.1479 -0.337378 0 -0.337378 -0.171834 0 0 0 7.92504 
27.1798 -0.34548 0 -0.34548 -0.202435 0 0 0 7.92478 
27.2241 -0.331002 0 -0.331002 -0.221549 0 0 0 7.93163 
27.2733 -0.301793 0 -0.301793 -0.232816 0 0 0 7.9423 
27.322 -0.263319 0 -0.263319 -0.238837 0 0 0 7.95446 
27.3664 -0.219312 0 -0.219312 -0.241507 0 0 0 7.96645 
27.4042 -0.17223 0 -0.17223 -0.242212 0 0 0 7.97712 
27.4337 -0.123606 0 -0.123606 -0.241951 0 0 0 7.98569 
27.4539 -0.0743138 0 -0.0743138 -0.241416 0 0 0 7.99165 
27.4641 -0.0247881 0 -0.0247881 -0.241044 0 0 0 7.99471 
26.9701 4.93592 0 4.93592 9.91475 0 0 0 10.9471 
27.7928 4.50371 0 4.50371 6.96308 0 0 0 10.2888 
28.2402 3.56339 0 3.56339 4.4891 0 0 0 9.66577 
28.3451 2.51017 0 2.51017 2.79384 0 0 0 9.17964 
28.248 1.60346 0 1.60346 1.70894 0 0 0 8.82025 
28.0768 0.912969 0 0.912969 1.01662 0 0 0 8.55873 
27.905 0.420321 0 0.420321 0.566888 0 0 0 8.37097 
27.7635 0.0848184 0 0.0848184 0.268912 0 0 0 8.23836 
27.6596 -0.132727 0 -0.132727 0.0687058 0 0 0 8.14664 
27.5905 -0.264125 0 -0.264125 -0.0665069 0 0 0 8.08495 
27.5495 -0.333724 0 -0.333724 -0.157378 0 0 0 8.04504 
27.5295 -0.359719 0 -0.359719 -0.217482 0 0 0 8.02069 
27.524 -0.355531 0 -0.355531 -0.256108 0 0 0 8.00718 
27.5278 -0.330943 0 -0.330943 -0.27983 0 0 0 8.00096 
27.5369 -0.292979 0 -0.292979 -0.293419 0 0 0 7.99939 
27.5482 -0.246575 0 -0.246575 -0.300376 0 0 0 8.0005 
27.5594 -0.195096 0 -0.195096 -0.303277 0 0 0 8.00285 
27.569 -0.140746 0 -0.140746 -0.30398 0 0 0 8.00541 
27.5759 -0.0848977 0 -0.0848977 -0.303776 0 0 0 8.00748 
27.5796 -0.0283637 0 -0.0283637 -0.303477 0 0 0 8.00861 
26.4209 3.96319 0 3.96319 9.93706 0 0 0 10.8007 
27.2146 3.71407 0 3.71407 7.58327 0 0 0 10.3157 
27.7934 3.12637 0 3.12637 5.42153 0 0 0 9.82502 
28.1235 2.37744 0 2.37744 3.70773 0 0 0 9.39745 
28.2515 1.6446 0 1.6446 2.45693 0 0 0 9.0517 
28.2521 1.02417 0 1.02417 1.57535 0 0 0 8.78141 
28.189 0.543314 0 0.543314 0.960111 0 0 0 8.57397 
28.1033 0.193442 0 0.193442 0.53098 0 0 0 8.41702 
28.0175 -0.0469911 0 -0.0469911 0.23161 0 0 0 8.29987 
27.9415 -0.201394 0 -0.201394 0.0235141 0 0 0 8.21371 
27.8788 -0.290715 0 -0.290715 -0.119746 0 0 0 8.15137 
27.8292 -0.33221 0 -0.33221 -0.216682 0 0 0 8.10713 
27.7912 -0.339464 0 -0.339464 -0.28056 0 0 0 8.07645 
27.7628 -0.322843 0 -0.322843 -0.321077 0 0 0 8.05576 
27.742 -0.290053 0 -0.290053 -0.345421 0 0 0 8.04227 
27.7271 -0.246672 0 -0.246672 -0.358949 0 0 0 8.03382 
27.7167 -0.196624 0 -0.196624 -0.36563 0 0 0 8.0288 
27.7098 -0.142574 0 -0.142574 -0.368348 0 0 0 8.02599 
27.7057 -0.0862769 0 -0.0862769 -0.369112 0 0 0 8.02456 
27.7037 -0.0288694 0 -0.0288694 -0.369187 0 0 0 8.02398 
26.1179 3.11801 0 3.11801 9.95402 0 0 0 10.7222 
26.8599 2.95918 0 2.95918 7.94193 0 0 0 10.3261 
27.4695 2.57804 0 2.57804 6.02929 0 0 0 9.91992 
27.9036 2.05739 0 2.05739 4.3885 0 0 0 9.54422 
28.1672 1.50407 0 1.50407 3.08099 0 0 0 9.21988 
28.2957 0.997764 0 0.997764 2.08493 0 0 0 8.95112 
28.332 0.578338 0 0.578338 1.34508 0 0 0 8.7339 
28.3124 0.255608 0 0.255608 0.80369 0 0 0 8.56135 
28.2631 0.0226943 0 0.0226943 0.411933 0 0 0 8.42619 
28.2008 -0.134289 0 -0.134289 0.131762 0 0 0 8.32169 
28.1356 -0.230733 0 -0.230733 -0.0656548 0 0 0 8.2419 
28.0732 -0.28089 0 -0.28089 -0.202046 0 0 0 8.18178 
28.0166 -0.296837 0 -0.296837 -0.293839 0 0 0 8.13713 
27.9671 -0.288268 0 -0.288268 -0.353513 0 0 0 8.10446 
27.9252 -0.262659 0 -0.262659 -0.390565 0 0 0 8.08098 