# vtk DataFile Version 2.0
Generated by inSilico's base::io::vtk::LegacyWriter
ASCII
DATASET UNSTRUCTURED_GRID
POINTS 441 float
0 0 0 
0.05 0 0 
0.1 0 0 
0.15 0 0 
0.2 0 0 
0.25 0 0 
0.3 0 0 
0.35 0 0 
0.4 0 0 
0.45 0 0 
0.5 0 0 
0.55 0 0 
0.6 0 0 
0.65 0 0 
0.7 0 0 
0.75 0 0 
0.8 0 0 
0.85 0 0 
0.9 0 0 
0.95 0 0 
1 0 0 
0 0.05 0 
0.05 0.05 0 
0.1 0.05 0 
0.15 0.05 0 
0.2 0.05 0 
0.25 0.05 0 
0.3 0.05 0 
0.35 0.05 0 
0.4 0.05 0 
0.45 0.05 0 
0.5 0.05 0 
0.55 0.05 0 
0.6 0.05 0 
0.65 0.05 0 
0.7 0.05 0 
0.75 0.05 0 
0.8 0.05 0 
0.85 0.05 0 
0.9 0.05 0 
0.95 0.05 0 
1 0.05 0 
0 0.1 0 
0.05 0.1 0 
0.1 0.1 0 
0.15 0.1 0 
0.2 0.1 0 
0.25 0.1 0 
0.3 0.1 0 
0.35 0.1 0 
0.4 0.1 0 
0.45 0.1 0 
0.5 0.1 0 
0.55 0.1 0 
0.6 0.1 0 
0.65 0.1 0 
0.7 0.1 0 
0.75 0.1 0 
0.8 0.1 0 
0.85 0.1 0 
0.9 0.1 0 
0.95 0.1 0 
1 0.1 0 
0 0.15 0 
0.05 0.15 0 
0.1 0.15 0 
0.15 0.15 0 
0.2 0.15 0 
0.25 0.15 0 
0.3 0.15 0 
0.35 0.15 0 
0.4 0.15 0 
0.45 0.15 0 
0.5 0.15 0 
0.55 0.15 0 
0.6 0.15 0 
0.65 0.15 0 
0.7 0.15 0 
0.75 0.15 0 
0.8 0.15 0 
0.85 0.15 0 
0.9 0.15 0 
0.95 0.15 0 
1 0.15 0 
0 0.2 0 
0.05 0.2 0 
0.1 0.2 0 
0.15 0.2 0 
0.2 0.2 0 
0.25 0.2 0 
0.3 0.2 0 
0.35 0.2 0 
0.4 0.2 0 
0.45 0.2 0 
0.5 0.2 0 
0.55 0.2 0 
0.6 0.2 0 
0.65 0.2 0 
0.7 0.2 0 
0.75 0.2 0 
0.8 0.2 0 
0.85 0.2 0 
0.9 0.2 0 
0.95 0.2 0 
1 0.2 0 
0 0.25 0 
0.05 0.25 0 
0.1 0.25 0 
0.15 0.25 0 
0.2 0.25 0 
0.25 0.25 0 
0.3 0.25 0 
0.35 0.25 0 
0.4 0.25 0 
0.45 0.25 0 
0.5 0.25 0 
0.55 0.25 0 
0.6 0.25 0 
0.65 0.25 0 
0.7 0.25 0 
0.75 0.25 0 
0.8 0.25 0 
0.85 0.25 0 
0.9 0.25 0 
0.95 0.25 0 
1 0.25 0 
0 0.3 0 
0.05 0.3 0 
0.1 0.3 0 
0.15 0.3 0 
0.2 0.3 0 
0.25 0.3 0 
0.3 0.3 0 
0.35 0.3 0 
0.4 0.3 0 
0.45 0.3 0 
0.5 0.3 0 
0.55 0.3 0 
0.6 0.3 0 
0.65 0.3 0 
0.7 0.3 0 
0.75 0.3 0 
0.8 0.3 0 
0.85 0.3 0 
0.9 0.3 0 
0.95 0.3 0 
1 0.3 0 
0 0.35 0 
0.05 0.35 0 
0.1 0.35 0 
0.15 0.35 0 
0.2 0.35 0 
0.25 0.35 0 
0.3 0.35 0 
0.35 0.35 0 
0.4 0.35 0 
0.45 0.35 0 
0.5 0.35 0 
0.55 0.35 0 
0.6 0.35 0 
0.65 0.35 0 
0.7 0.35 0 
0.75 0.35 0 
0.8 0.35 0 
0.85 0.35 0 
0.9 0.35 0 
0.95 0.35 0 
1 0.35 0 
0 0.4 0 
0.05 0.4 0 
0.1 0.4 0 
0.15 0.4 0 
0.2 0.4 0 
0.25 0.4 0 
0.3 0.4 0 
0.35 0.4 0 
0.4 0.4 0 
0.45 0.4 0 
0.5 0.4 0 
0.55 0.4 0 
0.6 0.4 0 
0.65 0.4 0 
0.7 0.4 0 
0.75 0.4 0 
0.8 0.4 0 
0.85 0.4 0 
0.9 0.4 0 
0.95 0.4 0 
1 0.4 0 
0 0.45 0 
0.05 0.45 0 
0.1 0.45 0 
0.15 0.45 0 
0.2 0.45 0 
0.25 0.45 0 
0.3 0.45 0 
0.35 0.45 0 
0.4 0.45 0 
0.45 0.45 0 
0.5 0.45 0 
0.55 0.45 0 
0.6 0.45 0 
0.65 0.45 0 
0.7 0.45 0 
0.75 0.45 0 
0.8 0.45 0 
0.85 0.45 0 
0.9 0.45 0 
0.95 0.45 0 
1 0.45 0 
0 0.5 0 
0.05 0.5 0 
0.1 0.5 0 
0.15 0.5 0 
0.2 0.5 0 
0.25 0.5 0 
0.3 0.5 0 
0.35 0.5 0 
0.4 0.5 0 
0.45 0.5 0 
0.5 0.5 0 
0.55 0.5 0 
0.6 0.5 0 
0.65 0.5 0 
0.7 0.5 0 
0.75 0.5 0 
0.8 0.5 0 
0.85 0.5 0 
0.9 0.5 0 
0.95 0.5 0 
1 0.5 0 
0 0.55 0 
0.05 0.55 0 
0.1 0.55 0 
0.15 0.55 0 
0.2 0.55 0 
0.25 0.55 0 
0.3 0.55 0 
0.35 0.55 0 
0.4 0.55 0 
0.45 0.55 0 
0.5 0.55 0 
0.55 0.55 0 
0.6 0.55 0 
0.65 0.55 0 
0.7 0.55 0 
0.75 0.55 0 
0.8 0.55 0 
0.85 0.55 0 
0.9 0.55 0 
0.95 0.55 0 
1 0.55 0 
0 0.6 0 
0.05 0.6 0 
0.1 0.6 0 
0.15 0.6 0 
0.2 0.6 0 
0.25 0.6 0 
0.3 0.6 0 
0.35 0.6 0 
0.4 0.6 0 
0.45 0.6 0 
0.5 0.6 0 
0.55 0.6 0 
0.6 0.6 0 
0.65 0.6 0 
0.7 0.6 0 
0.75 0.6 0 
0.8 0.6 0 
0.85 0.6 0 
0.9 0.6 0 
0.95 0.6 0 
1 0.6 0 
0 0.65 0 
0.05 0.65 0 
0.1 0.65 0 
0.15 0.65 0 
0.2 0.65 0 
0.25 0.65 0 
0.3 0.65 0 
0.35 0.65 0 
0.4 0.65 0 
0.45 0.65 0 
0.5 0.65 0 
0.55 0.65 0 
0.6 0.65 0 
0.65 0.65 0 
0.7 0.65 0 
0.75 0.65 0 
0.8 0.65 0 
0.85 0.65 0 
0.9 0.65 0 
0.95 0.65 0 
1 0.65 0 
0 0.7 0 
0.05 0.7 0 
0.1 0.7 0 
0.15 0.7 0 
0.2 0.7 0 
0.25 0.7 0 
0.3 0.7 0 
0.35 0.7 0 
0.4 0.7 0 
0.45 0.7 0 
0.5 0.7 0 
0.55 0.7 0 
0.6 0.7 0 
0.65 0.7 0 
0.7 0.7 0 
0.75 0.7 0 
0.8 0.7 0 
0.85 0.7 0 
0.9 0.7 0 
0.95 0.7 0 
1 0.7 0 
0 0.75 0 
0.05 0.75 0 
0.1 0.75 0 
0.15 0.75 0 
0.2 0.75 0 
0.25 0.75 0 
0.3 0.75 0 
0.35 0.75 0 
0.4 0.75 0 
0.45 0.75 0 
0.5 0.75 0 
0.55 0.75 0 
0.6 0.75 0 
0.65 0.75 0 
0.7 0.75 0 
0.75 0.75 0 
0.8 0.75 0 
0.85 0.75 0 
0.9 0.75 0 
0.95 0.75 0 
1 0.75 0 
0 0.8 0 
0.05 0.8 0 
0.1 0.8 0 
0.15 0.8 0 
0.2 0.8 0 
0.25 0.8 0 
0.3 0.8 0 
0.35 0.8 0 
0.4 0.8 0 
0.45 0.8 0 
0.5 0.8 0 
0.55 0.8 0 
0.6 0.8 0 
0.65 0.8 0 
0.7 0.8 0 
0.75 0.8 0 
0.8 0.8 0 
0.85 0.8 0 
0.9 0.8 0 
0.95 0.8 0 
1 0.8 0 
0 0.85 0 
0.05 0.85 0 
0.1 0.85 0 
0.15 0.85 0 
0.2 0.85 0 
0.25 0.85 0 
0.3 0.85 0 
0.35 0.85 0 
0.4 0.85 0 
0.45 0.85 0 
0.5 0.85 0 
0.55 0.85 0 
0.6 0.85 0 
0.65 0.85 0 
0.7 0.85 0 
0.75 0.85 0 
0.8 0.85 0 
0.85 0.85 0 
0.9 0.85 0 
0.95 0.85 0 
1 0.85 0 
0 0.9 0 
0.05 0.9 0 
0.1 0.9 0 
0.15 0.9 0 
0.2 0.9 0 
0.25 0.9 0 
0.3 0.9 0 
0.35 0.9 0 
0.4 0.9 0 
0.45 0.9 0 
0.5 0.9 0 
0.55 0.9 0 
0.6 0.9 0 
0.65 0.9 0 
0.7 0.9 0 
0.75 0.9 0 
0.8 0.9 0 
0.85 0.9 0 
0.9 0.9 0 
0.95 0.9 0 
1 0.9 0 
0 0.95 0 
0.05 0.95 0 
0.1 0.95 0 
0.15 0.95 0 
0.2 0.95 0 
0.25 0.95 0 
0.3 0.95 0 
0.35 0.95 0 
0.4 0.95 0 
0.45 0.95 0 
0.5 0.95 0 
0.55 0.95 0 
0.6 0.95 0 
0.65 0.95 0 
0.7 0.95 0 
0.75 0.95 0 
0.8 0.95 0 
0.85 0.95 0 
0.9 0.95 0 
0.95 0.95 0 
1 0.95 0 
0 1 0 
0.05 1 0 
0.1 1 0 
0.15 1 0 
0.2 1 0 
0.25 1 0 
0.3 1 0 
0.35 1 0 
0.4 1 0 
0.45 1 0 
0.5 1 0 
0.55 1 0 
0.6 1 0 
0.65 1 0 
0.7 1 0 
0.75 1 0 
0.8 1 0 
0.85 1 0 
0.9 1 0 
0.95 1 0 
1 1 0 
CELLS 400 2000
4 0 1 22 21 
4 1 2 23 22 
4 2 3 24 23 
4 3 4 25 24 
4 4 5 26 25 
4 5 6 27 26 
4 6 7 28 27 
4 7 8 29 28 
4 8 9 30 29 
4 9 10 31 30 
4 10 11 32 31 
4 11 12 33 32 
4 12 13 34 33 
4 13 14 35 34 
4 14 15 36 35 
4 15 16 37 36 
4 16 17 38 37 
4 17 18 39 38 
4 18 19 40 39 
4 19 20 41 40 
4 21 22 43 42 
4 22 23 44 43 
4 23 24 45 44 
4 24 25 46 45 
4 25 26 47 46 
4 26 27 48 47 
4 27 28 49 48 
4 28 29 50 49 
4 29 30 51 50 
4 30 31 52 51 
4 31 32 53 52 
4 32 33 54 53 
4 33 34 55 54 
4 34 35 56 55 
4 35 36 57 56 
4 36 37 58 57 
4 37 38 59 58 
4 38 39 60 59 
4 39 40 61 60 
4 40 41 62 61 
4 42 43 64 63 
4 43 44 65 64 
4 44 45 66 65 
4 45 46 67 66 
4 46 47 68 67 
4 47 48 69 68 
4 48 49 70 69 
4 49 50 71 70 
4 50 51 72 71 
4 51 52 73 72 
4 52 53 74 73 
4 53 54 75 74 
4 54 55 76 75 
4 55 56 77 76 
4 56 57 78 77 
4 57 58 79 78 
4 58 59 80 79 
4 59 60 81 80 
4 60 61 82 81 
4 61 62 83 82 
4 63 64 85 84 
4 64 65 86 85 
4 65 66 87 86 
4 66 67 88 87 
4 67 68 89 88 
4 68 69 90 89 
4 69 70 91 90 
4 70 71 92 91 
4 71 72 93 92 
4 72 73 94 93 
4 73 74 95 94 
4 74 75 96 95 
4 75 76 97 96 
4 76 77 98 97 
4 77 78 99 98 
4 78 79 100 99 
4 79 80 101 100 
4 80 81 102 101 
4 81 82 103 102 
4 82 83 104 103 
4 84 85 106 105 
4 85 86 107 106 
4 86 87 108 107 
4 87 88 109 108 
4 88 89 110 109 
4 89 90 111 110 
4 90 91 112 111 
4 91 92 113 112 
4 92 93 114 113 
4 93 94 115 114 
4 94 95 116 115 
4 95 96 117 116 
4 96 97 118 117 
4 97 98 119 118 
4 98 99 120 119 
4 99 100 121 120 
4 100 101 122 121 
4 101 102 123 122 
4 102 103 124 123 
4 103 104 125 124 
4 105 106 127 126 
4 106 107 128 127 
4 107 108 129 128 
4 108 109 130 129 
4 109 110 131 130 
4 110 111 132 131 
4 111 112 133 132 
4 112 113 134 133 
4 113 114 135 134 
4 114 115 136 135 
4 115 116 137 136 
4 116 117 138 137 
4 117 118 139 138 
4 118 119 140 139 
4 119 120 141 140 
4 120 121 142 141 
4 121 122 143 142 
4 122 123 144 143 
4 123 124 145 144 
4 124 125 146 145 
4 126 127 148 147 
4 127 128 149 148 
4 128 129 150 149 
4 129 130 151 150 
4 130 131 152 151 
4 131 132 153 152 
4 132 133 154 153 
4 133 134 155 154 
4 134 135 156 155 
4 135 136 157 156 
4 136 137 158 157 
4 137 138 159 158 
4 138 139 160 159 
4 139 140 161 160 
4 140 141 162 161 
4 141 142 163 162 
4 142 143 164 163 
4 143 144 165 164 
4 144 145 166 165 
4 145 146 167 166 
4 147 148 169 168 
4 148 149 170 169 
4 149 150 171 170 
4 150 151 172 171 
4 151 152 173 172 
4 152 153 174 173 
4 153 154 175 174 
4 154 155 176 175 
4 155 156 177 176 
4 156 157 178 177 
4 157 158 179 178 
4 158 159 180 179 
4 159 160 181 180 
4 160 161 182 181 
4 161 162 183 182 
4 162 163 184 183 
4 163 164 185 184 
4 164 165 186 185 
4 165 166 187 186 
4 166 167 188 187 
4 168 169 190 189 
4 169 170 191 190 
4 170 171 192 191 
4 171 172 193 192 
4 172 173 194 193 
4 173 174 195 194 
4 174 175 196 195 
4 175 176 197 196 
4 176 177 198 197 
4 177 178 199 198 
4 178 179 200 199 
4 179 180 201 200 
4 180 181 202 201 
4 181 182 203 202 
4 182 183 204 203 
4 183 184 205 204 
4 184 185 206 205 
4 185 186 207 206 
4 186 187 208 207 
4 187 188 209 208 
4 189 190 211 210 
4 190 191 212 211 
4 191 192 213 212 
4 192 193 214 213 
4 193 194 215 214 
4 194 195 216 215 
4 195 196 217 216 
4 196 197 218 217 
4 197 198 219 218 
4 198 199 220 219 
4 199 200 221 220 
4 200 201 222 221 
4 201 202 223 222 
4 202 203 224 223 
4 203 204 225 224 
4 204 205 226 225 
4 205 206 227 226 
4 206 207 228 227 
4 207 208 229 228 
4 208 209 230 229 
4 210 211 232 231 
4 211 212 233 232 
4 212 213 234 233 
4 213 214 235 234 
4 214 215 236 235 
4 215 216 237 236 
4 216 217 238 237 
4 217 218 239 238 
4 218 219 240 239 
4 219 220 241 240 
4 220 221 242 241 
4 221 222 243 242 
4 222 223 244 243 
4 223 224 245 244 
4 224 225 246 245 
4 225 226 247 246 
4 226 227 248 247 
4 227 228 249 248 
4 228 229 250 249 
4 229 230 251 250 
4 231 232 253 252 
4 232 233 254 253 
4 233 234 255 254 
4 234 235 256 255 
4 235 236 257 256 
4 236 237 258 257 
4 237 238 259 258 
4 238 239 260 259 
4 239 240 261 260 
4 240 241 262 261 
4 241 242 263 262 
4 242 243 264 263 
4 243 244 265 264 
4 244 245 266 265 
4 245 246 267 266 
4 246 247 268 267 
4 247 248 269 268 
4 248 249 270 269 
4 249 250 271 270 
4 250 251 272 271 
4 252 253 274 273 
4 253 254 275 274 
4 254 255 276 275 
4 255 256 277 276 
4 256 257 278 277 
4 257 258 279 278 
4 258 259 280 279 
4 259 260 281 280 
4 260 261 282 281 
4 261 262 283 282 
4 262 263 284 283 
4 263 264 285 284 
4 264 265 286 285 
4 265 266 287 286 
4 266 267 288 287 
4 267 268 289 288 
4 268 269 290 289 
4 269 270 291 290 
4 270 271 292 291 
4 271 272 293 292 
4 273 274 295 294 
4 274 275 296 295 
4 275 276 297 296 
4 276 277 298 297 
4 277 278 299 298 
4 278 279 300 299 
4 279 280 301 300 
4 280 281 302 301 
4 281 282 303 302 
4 282 283 304 303 
4 283 284 305 304 
4 284 285 306 305 
4 285 286 307 306 
4 286 287 308 307 
4 287 288 309 308 
4 288 289 310 309 
4 289 290 311 310 
4 290 291 312 311 
4 291 292 313 312 
4 292 293 314 313 
4 294 295 316 315 
4 295 296 317 316 
4 296 297 318 317 
4 297 298 319 318 
4 298 299 320 319 
4 299 300 321 320 
4 300 301 322 321 
4 301 302 323 322 
4 302 303 324 323 
4 303 304 325 324 
4 304 305 326 325 
4 305 306 327 326 
4 306 307 328 327 
4 307 308 329 328 
4 308 309 330 329 
4 309 310 331 330 
4 310 311 332 331 
4 311 312 333 332 
4 312 313 334 333 
4 313 314 335 334 
4 315 316 337 336 
4 316 317 338 337 
4 317 318 339 338 
4 318 319 340 339 
4 319 320 341 340 
4 320 321 342 341 
4 321 322 343 342 
4 322 323 344 343 
4 323 324 345 344 
4 324 325 346 345 
4 325 326 347 346 
4 326 327 348 347 
4 327 328 349 348 
4 328 329 350 349 
4 329 330 351 350 
4 330 331 352 351 
4 331 332 353 352 
4 332 333 354 353 
4 333 334 355 354 
4 334 335 356 355 
4 336 337 358 357 
4 337 338 359 358 
4 338 339 360 359 
4 339 340 361 360 
4 340 341 362 361 
4 341 342 363 362 
4 342 343 364 363 
4 343 344 365 364 
4 344 345 366 365 
4 345 346 367 366 
4 346 347 368 367 
4 347 348 369 368 
4 348 349 370 369 
4 349 350 371 370 
4 350 351 372 371 
4 351 352 373 372 
4 352 353 374 373 
4 353 354 375 374 
4 354 355 376 375 
4 355 356 377 376 
4 357 358 379 378 
4 358 359 380 379 
4 359 360 381 380 
4 360 361 382 381 
4 361 362 383 382 
4 362 363 384 383 
4 363 364 385 384 
4 364 365 386 385 
4 365 366 387 386 
4 366 367 388 387 
4 367 368 389 388 
4 368 369 390 389 
4 369 370 391 390 
4 370 371 392 391 
4 371 372 393 392 
4 372 373 394 393 
4 373 374 395 394 
4 374 375 396 395 
4 375 376 397 396 
4 376 377 398 397 
4 378 379 400 399 
4 379 380 401 400 
4 380 381 402 401 
4 381 382 403 402 
4 382 383 404 403 
4 383 384 405 404 
4 384 385 406 405 
4 385 386 407 406 
4 386 387 408 407 
4 387 388 409 408 
4 388 389 410 409 
4 389 390 411 410 
4 390 391 412 411 
4 391 392 413 412 
4 392 393 414 413 
4 393 394 415 414 
4 394 395 416 415 
4 395 396 417 416 
4 396 397 418 417 
4 397 398 419 418 
4 399 400 421 420 
4 400 401 422 421 
4 401 402 423 422 
4 402 403 424 423 
4 403 404 425 424 
4 404 405 426 425 
4 405 406 427 426 
4 406 407 428 427 
4 407 408 429 428 
4 408 409 430 429 
4 409 410 431 430 
4 410 411 432 431 
4 411 412 433 432 
4 412 413 434 433 
4 413 414 435 434 
4 414 415 436 435 
4 415 416 437 436 
4 416 417 438 437 
4 417 418 439 438 
4 418 419 440 439 
CELL_TYPES 400
9
9
9
9
9
9
9
9
9
9
9
9
9
9
9
9
9
9
9
9
9
9
9
9
9
9
9
9
9
9
9
9
9
9
9
9
9
9
9
9
9
9
9
9
9
9
9
9
9
9
9
9
9
9
9
9
9
9
9
9
9
9
9
9
9
9
9
9
9
9
9
9
9
9
9
9
9
9
9
9
9
9
9
9
9
9
9
9
9
9
9
9
9
9
9
9
9
9
9
9
9
9
9
9
9
9
9
9
9
9
9
9
9
9
9
9
9
9
9
9
9
9
9
9
9
9
9
9
9
9
9
9
9
9
9
9
9
9
9
9
9
9
9
9
9
9
9
9
9
9
9
9
9
9
9
9
9
9
9
9
9
9
9
9
9
9
9
9
9
9
9
9
9
9
9
9
9
9
9
9
9
9
9
9
9
9
9
9
9
9
9
9
9
9
9
9
9
9
9
9
9
9
9
9
9
9
9
9
9
9
9
9
9
9
9
9
9
9
9
9
9
9
9
9
9
9
9
9
9
9
9
9
9
9
9
9
9
9
9
9
9
9
9
9
9
9
9
9
9
9
9
9
9
9
9
9
9
9
9
9
9
9
9
9
9
9
9
9
9
9
9
9
9
9
9
9
9
9
9
9
9
9
9
9
9
9
9
9
9
9
9
9
9
9
9
9
9
9
9
9
9
9
9
9
9
9
9
9
9
9
9
9
9
9
9
9
9
9
9
9
9
9
9
9
9
9
9
9
9
9
9
9
9
9
9
9
9
9
9
9
9
9
9
9
9
9
9
9
9
9
9
9
9
9
9
9
9
9
9
9
9
9
9
9
9
9
9
9
9
9
9
9
9
9
9
9
9
9
9
9
9
9
9
9
9
9
9
9
9
9
9
9
9
9
9
9
9
9
9
9
POINT_DATA 441
SCALARS temperature float 
LOOKUP_TABLE default 
1 
0.988771 
0.955336 
0.900447 
0.825336 
0.731689 
0.62161 
0.497571 
0.362358 
0.219007 
0.0707372 
-0.0791209 
-0.227202 
-0.370181 
-0.504846 
-0.628174 
-0.737394 
-0.830054 
-0.904072 
-0.957787 
-0.989992 
0.968912 
0.958033 
0.925638 
0.872455 
0.799679 
0.708943 
0.602286 
0.482103 
0.351093 
0.212199 
0.0685384 
-0.0766611 
-0.220139 
-0.358673 
-0.489152 
-0.608646 
-0.71447 
-0.80425 
-0.875968 
-0.928013 
-0.959217 
0.877583 
0.867729 
0.838388 
0.790218 
0.724301 
0.642119 
0.545515 
0.436661 
0.318 
0.192197 
0.0620782 
-0.0694348 
-0.199389 
-0.324864 
-0.443044 
-0.551275 
-0.647124 
-0.728441 
-0.793399 
-0.840539 
-0.868802 
0.731689 
0.723473 
0.69901 
0.658848 
0.60389 
0.53537 
0.454826 
0.364068 
0.265134 
0.160246 
0.0517583 
-0.0578914 
-0.166241 
-0.270857 
-0.36939 
-0.459628 
-0.539543 
-0.607341 
-0.6615 
-0.700803 
-0.724368 
0.540302 
0.534236 
0.516171 
0.486515 
0.445932 
0.395334 
0.335858 
0.26884 
0.195784 
0.118331 
0.0382203 
-0.0427485 
-0.122757 
-0.200009 
-0.272769 
-0.339403 
-0.398415 
-0.44848 
-0.488472 
-0.517495 
-0.534896 
0.315322 
0.311782 
0.301239 
0.283932 
0.260247 
0.230719 
0.196008 
0.156896 
0.11426 
0.0690586 
0.0223059 
-0.0249476 
-0.0716409 
-0.116725 
-0.159188 
-0.198076 
-0.232515 
-0.261733 
-0.285073 
-0.302011 
-0.312166 
0.0707372 
0.0699429 
0.0675779 
0.0636952 
0.0583821 
0.0517578 
0.0439712 
0.0351972 
0.0256328 
0.0154927 
0.00500475 
-0.00559556 
-0.0160702 
-0.0261839 
-0.0357095 
-0.0444331 
-0.0521589 
-0.0587132 
-0.063949 
-0.0677486 
-0.0700267 
-0.178246 
-0.176245 
-0.170285 
-0.160502 
-0.147113 
-0.130421 
-0.1108 
-0.08869 
-0.0645885 
-0.0390364 
-0.0126075 
0.0141045 
0.0404998 
0.0659856 
0.0899895 
0.111973 
0.131441 
0.147957 
0.161151 
0.170726 
0.176467 
-0.416147 
-0.411475 
-0.397561 
-0.374719 
-0.343462 
-0.304491 
-0.258682 
-0.207063 
-0.150794 
-0.0911383 
-0.0294359 
0.0329276 
0.0945518 
0.154053 
0.210094 
0.261416 
0.306869 
0.345429 
0.376232 
0.398586 
0.411988 
-0.628174 
-0.621121 
-0.600119 
-0.565639 
-0.518456 
-0.459629 
-0.39048 
-0.312562 
-0.227624 
-0.137574 
-0.044434 
0.0497036 
0.142725 
0.232541 
0.317135 
0.394607 
0.463217 
0.521424 
0.567921 
0.601664 
0.621895 
-0.801144 
-0.792149 
-0.765363 
-0.721389 
-0.661214 
-0.58619 
-0.498 
-0.398627 
-0.290301 
-0.175455 
-0.0566694 
0.0633893 
0.182025 
0.296572 
0.404459 
0.503263 
0.590765 
0.664999 
0.724299 
0.767333 
0.793135 
-0.924302 
-0.913925 
-0.883022 
-0.832288 
-0.762862 
-0.676304 
-0.574557 
-0.459907 
-0.334929 
-0.202428 
-0.0653813 
0.0731339 
0.210007 
0.342163 
0.466635 
0.580628 
0.681581 
0.767228 
0.835644 
0.885294 
0.915062 
-0.989992 
-0.978877 
-0.945778 
-0.891438 
-0.817078 
-0.724369 
-0.615391 
-0.492593 
-0.358732 
-0.216815 
-0.070028 
0.0783314 
0.224932 
0.36648 
0.499799 
0.621893 
0.730021 
0.821754 
0.895033 
0.948211 
0.980095 
-0.99413 
-0.982968 
-0.94973 
-0.895163 
-0.820493 
-0.727396 
-0.617963 
-0.494651 
-0.360231 
-0.217721 
-0.0703206 
0.0786587 
0.225872 
0.368012 
0.501887 
0.624492 
0.733072 
0.825188 
0.898773 
0.952173 
0.98419 
-0.936457 
-0.925942 
-0.894633 
-0.843232 
-0.772893 
-0.685197 
-0.582112 
-0.465954 
-0.339332 
-0.20509 
-0.0662409 
0.0740955 
0.212768 
0.346662 
0.472771 
0.588263 
0.690543 
0.777316 
0.846632 
0.896934 
0.927093 
-0.820559 
-0.811346 
-0.783911 
-0.738872 
-0.677238 
-0.600395 
-0.510069 
-0.408287 
-0.297336 
-0.179707 
-0.0580426 
0.0649255 
0.186436 
0.303759 
0.41426 
0.515458 
0.60508 
0.681114 
0.741851 
0.785928 
0.812355 
-0.653644 
-0.646304 
-0.62445 
-0.588572 
-0.539476 
-0.478264 
-0.406311 
-0.325234 
-0.236852 
-0.143151 
-0.0462354 
0.0517188 
0.148512 
0.241969 
0.329993 
0.410605 
0.481996 
0.542563 
0.590945 
0.626056 
0.647107 
-0.446087 
-0.441078 
-0.426163 
-0.401678 
-0.368171 
-0.326396 
-0.277291 
-0.221959 
-0.161642 
-0.0976946 
-0.0315533 
0.0352966 
0.101354 
0.165135 
0.225208 
0.280223 
0.328944 
0.370279 
0.403298 
0.427259 
0.441626 
-0.210796 
-0.208428 
-0.20138 
-0.189809 
-0.173975 
-0.154235 
-0.131031 
-0.104884 
-0.0763814 
-0.0461638 
-0.0149094 
0.0166799 
0.0478946 
0.0780337 
0.10642 
0.132417 
0.15544 
0.174972 
0.190575 
0.201897 
0.208686 
0.0376022 
0.0371816 
0.0359256 
0.0338622 
0.0310381 
0.0275168 
0.0233774 
0.018713 
0.0136283 
0.00823751 
0.00266175 
-0.00297376 
-0.00854248 
-0.0139193 
-0.0189836 
-0.0236214 
-0.0277289 
-0.0312136 
-0.0339974 
-0.0360179 
-0.0372293 
0.283662 
0.28048 
0.270998 
0.255428 
0.234122 
0.207558 
0.176332 
0.141146 
0.102791 
0.0621268 
0.0200675 
-0.0224424 
-0.0644484 
-0.105007 
-0.143207 
-0.178191 
-0.209174 
-0.235459 
-0.256456 
-0.271694 
-0.280832 
CELL_DATA 400
VECTORS flux float 
-0.222947 -0.619887 0 
-0.663495 -0.606021 0 
-1.08922 -0.578508 0 
-1.4905 -0.537991 0 
-1.85831 -0.485387 0 
-2.18438 -0.421879 0 
-2.4614 -0.348896 0 
-2.68314 -0.268077 0 
-2.84463 -0.181236 0 
-2.94223 -0.0903256 0 
-2.97375 0.00261396 0 
-2.93849 0.095495 0 
-2.83724 0.186231 0 
-2.67227 0.272786 0 
-2.44728 0.353214 0 
-2.16734 0.425709 0 
-1.83872 0.488644 0 
-1.46881 0.540605 0 
-1.06591 0.580424 0 
-0.639076 0.607207 0 
-0.209035 -1.82145 0 
-0.622256 -1.78053 0 
-1.02151 -1.69964 0 
-1.39784 -1.58058 0 
-1.74277 -1.42603 0 
-2.04857 -1.23944 0 
-2.30837 -1.02502 0 
-2.51632 -0.787582 0 
-2.66776 -0.532454 0 
-2.7593 -0.265368 0 
-2.78886 0.00767865 0 
-2.75579 0.280552 0 
-2.66084 0.547126 0 
-2.50612 0.801412 0 
-2.29513 1.0377 0 
-2.03259 1.25068 0 
-1.7244 1.43558 0 
-1.37749 1.58823 0 
-0.99964 1.70522 0 
-0.599343 1.78391 0 
-0.182165 -2.90969 0 
-0.542311 -2.84433 0 
-0.890279 -2.7151 0 
-1.21826 -2.52491 0 
-1.51888 -2.278 0 
-1.78539 -1.97994 0 
-2.01181 -1.63742 0 
-2.19304 -1.25812 0 
-2.32503 -0.850566 0 
-2.4048 -0.42391 0 
-2.43057 0.0122658 0 
-2.40175 0.448166 0 
-2.31899 0.874002 0 
-2.18415 1.28021 0 
-2.00027 1.65767 0 
-1.77146 1.9979 0 
-1.50286 2.29326 0 
-1.20052 2.53712 0 
-0.871214 2.724 0 
-0.522344 2.8497 0 
-0.143981 -3.817 0 
-0.428649 -3.73127 0 
-0.70369 -3.56175 0 
-0.962929 -3.31224 0 
-1.20054 -2.98834 0 
-1.4112 -2.59734 0 
-1.59016 -2.14801 0 
-1.73341 -1.65043 0 
-1.83774 -1.11579 0 
-1.90079 -0.556096 0 
-1.92116 0.0160903 0 
-1.89838 0.587915 0 
-1.83296 1.14654 0 
-1.72639 1.67941 0 
-1.58104 2.17457 0 
-1.40018 2.62089 0 
-1.18788 3.00835 0 
-0.948907 3.32825 0 
-0.68862 3.5734 0 
-0.412868 3.73831 0 
-0.096851 -4.48699 0 
-0.288338 -4.38621 0 
-0.473349 -4.18693 0 
-0.64773 -3.89363 0 
-0.807565 -3.51288 0 
-0.949265 -3.05325 0 
-1.06965 -2.52504 0 
-1.16601 -1.94013 0 
-1.23618 -1.31165 0 
-1.2786 -0.653706 0 
-1.29229 0.0189143 0 
-1.27697 0.69111 0 
-1.23297 1.34779 0 
-1.16128 1.97419 0 
-1.06351 2.55626 0 
-0.941854 3.08092 0 
-0.799048 3.5364 0 
-0.638297 3.91245 0 
-0.463211 4.20063 0 
-0.277722 4.39448 0 
-0.0437024 -4.87799 0 
-0.130101 -4.76844 0 
-0.213578 -4.5518 0 
-0.292259 -4.23293 0 
-0.364376 -3.81901 0 
-0.42831 -3.31932 0 
-0.482626 -2.74508 0 
-0.526103 -2.1092 0 
-0.557766 -1.42595 0 
-0.576902 -0.710672 0 
-0.583083 0.0205623 0 
-0.576169 0.751335 0 
-0.556316 1.46523 0 
-0.523969 2.14623 0 
-0.479855 2.77902 0 
-0.424964 3.3494 0 
-0.36053 3.84457 0 
-0.287999 4.25339 0 
-0.209001 4.56669 0 
-0.125309 4.77743 0 
0.0121616 -4.96571 0 
0.0362229 -4.85418 0 
0.0594713 -4.63365 0 
0.0813842 -4.30905 0 
0.10147 -3.88768 0 
0.119276 -3.379 0 
0.134403 -2.79444 0 
0.146512 -2.14713 0 
0.155331 -1.45159 0 
0.160661 -0.723452 0 
0.162382 0.0209318 0 
0.160457 0.764845 0 
0.154928 1.49158 0 
0.14592 2.18482 0 
0.133635 2.82899 0 
0.118348 3.40963 0 
0.100404 3.9137 0 
0.0802045 4.32987 0 
0.058204 4.64881 0 
0.0348963 4.86334 0 
0.0672683 -4.74468 0 
0.200294 -4.63812 0 
0.328823 -4.4274 0 
0.449967 -4.11725 0 
0.561006 -3.71464 0 
0.659446 -3.2286 0 
0.743076 -2.67006 0 
0.810019 -2.05156 0 
0.85877 -1.38698 0 
0.888235 -0.691251 0 
0.897752 0.0199999 0 
0.887107 0.730801 0 
0.85654 1.42519 0 
0.806737 2.08757 0 
0.738816 2.70307 0 
0.654303 3.25787 0 
0.555096 3.7395 0 
0.443422 4.13715 0 
0.32179 4.44189 0 
0.192932 4.64687 0 
0.118192 -4.22865 0 
0.351912 -4.13368 0 
0.577729 -3.94588 0 
0.790572 -3.66946 0 
0.985661 -3.31064 0 
1.15862 -2.87746 0 
1.30555 -2.37967 0 
1.42316 -1.82843 0 
1.50882 -1.23613 0 
1.56058 -0.616071 0 
1.5773 0.0178244 0 
1.5586 0.651319 0 
1.5049 1.27019 0 
1.4174 1.86053 0 
1.29806 2.40909 0 
1.14958 2.90354 0 
0.975274 3.33279 0 
0.77907 3.68719 0 
0.565369 3.95879 0 
0.338971 4.14148 0 
0.161766 -3.4497 0 
0.481648 -3.37223 0 
0.790715 -3.21902 0 
1.08202 -2.99352 0 
1.34903 -2.70079 0 
1.58575 -2.34741 0 
1.78685 -1.94132 0 
1.94782 -1.49162 0 
2.06505 -1.00843 0 
2.1359 -0.502587 0 
2.15879 0.0145407 0 
2.13319 0.531342 0 
2.05969 1.03621 0 
1.93993 1.51781 0 
1.7766 1.96532 0 
1.57338 2.36869 0 
1.33482 2.71887 0 
1.06628 3.00799 0 
0.773796 3.22955 0 
0.463935 3.37859 0 
0.195282 -2.45627 0 
0.581438 -2.40111 0 
0.954537 -2.29202 0 
1.3062 -2.13146 0 
1.62853 -1.92303 0 
1.91429 -1.67142 0 
2.15705 -1.38226 0 
2.35137 -1.06207 0 
2.49289 -0.718025 0 
2.57842 -0.357854 0 
2.60605 0.0103529 0 
2.57515 0.378327 0 
2.48642 0.737805 0 
2.34184 1.08071 0 
2.14468 1.39935 0 
1.89935 1.68656 0 
1.61136 1.9359 0 
1.28719 2.14176 0 
0.934112 2.29952 0 
0.560054 2.40563 0 
0.216656 -1.31012 0 
0.645077 -1.2807 0 
1.05901 -1.22251 0 
1.44916 -1.13687 0 
1.80677 -1.0257 0 
2.1238 -0.891495 0 
2.39314 -0.737269 0 
2.60873 -0.566484 0 
2.76574 -0.382978 0 
2.86063 -0.190872 0 
2.89128 0.0055214 0 
2.857 0.201791 0 
2.75855 0.393528 0 
2.59816 0.576427 0 
2.37941 0.746381 0 
2.10723 0.899573 0 
1.78773 1.03256 0 
1.42807 1.14236 0 
1.03635 1.22651 0 
0.621352 1.28311 0 
0.224559 -0.0825116 0 
0.668607 -0.0806584 0 
1.09764 -0.0769939 0 
1.50202 -0.0716002 0 
1.87268 -0.0645987 0 
2.20127 -0.0561464 0 
2.48043 -0.0464333 0 
2.70389 -0.0356775 0 
2.86662 -0.0241206 0 
2.96497 -0.012022 0 
2.99674 0.000346533 0 
2.96121 0.0127072 0 
2.85917 0.0247824 0 
2.69293 0.0363011 0 
2.4662 0.0470044 0 
2.1841 0.0566521 0 
1.85294 0.0650275 0 
1.48017 0.0719425 0 
1.07415 0.0772418 0 
0.644017 0.0808064 0 
0.2185 1.15023 0 
0.650567 1.12439 0 
1.06802 1.07331 0 
1.4615 0.998124 0 
1.82215 0.90052 0 
2.14188 0.782693 0 
2.4135 0.647289 0 
2.63093 0.497348 0 
2.78927 0.336237 0 
2.88497 0.167575 0 
2.91588 -0.00484993 0 
2.88131 -0.177166 0 
2.78203 -0.345504 0 
2.62027 -0.506082 0 
2.39966 -0.655295 0 
2.12516 -0.789792 0 
1.80294 -0.906551 0 
1.44023 -1.00295 0 
1.04517 -1.07683 0 
0.62664 -1.12652 0 
0.198856 2.31145 0 
0.592077 2.25954 0 
0.972002 2.15688 0 
1.3301 2.00579 0 
1.65833 1.80965 0 
1.94931 1.57287 0 
2.19652 1.30077 0 
2.3944 0.99945 0 
2.5385 0.675689 0 
2.6256 0.336754 0 
2.65373 -0.0097449 0 
2.62226 -0.356025 0 
2.53191 -0.694309 0 
2.38469 -1.017 0 
2.18392 -1.31685 0 
1.9341 -1.58713 0 
1.64085 -1.82177 0 
1.31074 -2.01549 0 
0.951203 -2.16395 0 
0.570301 -2.26381 0 
0.166847 3.32896 0 
0.496775 3.25419 0 
0.815547 3.10635 0 
1.116 2.88874 0 
1.3914 2.60626 0 
1.63554 2.26525 0 
1.84296 1.87337 0 
2.00899 1.43941 0 
2.1299 0.97313 0 
2.20298 0.484994 0 
2.22658 -0.014034 0 
2.20018 -0.512747 0 
2.12437 -0.999945 0 
2.00084 -1.46469 0 
1.83239 -1.89653 0 
1.62278 -2.28579 0 
1.37673 -2.62371 0 
1.09976 -2.90271 0 
0.798095 -3.11652 0 
0.478504 -3.26034 0 
0.124464 4.13949 0 
0.370585 4.04652 0 
0.608384 3.86268 0 
0.83252 3.59209 0 
1.03796 3.24083 0 
1.22009 2.81679 0 
1.37482 2.32949 0 
1.49867 1.78988 0 
1.58887 1.21007 0 
1.64338 0.60308 0 
1.66099 -0.0174506 0 
1.6413 -0.637589 0 
1.58474 -1.24341 0 
1.4926 -1.8213 0 
1.36693 -2.3583 0 
1.21057 -2.84233 0 
1.02702 -3.26253 0 
0.820404 -3.60946 0 
0.595365 -3.87533 0 
0.356956 -4.05416 0 
0.0743427 4.69264 0 
0.221354 4.58725 0 
0.363395 4.37885 0 
0.497274 4.0721 0 
0.619986 3.6739 0 
0.728774 3.1932 0 
0.821196 2.64078 0 
0.895175 2.02906 0 
0.949051 1.37177 0 
0.981613 0.683669 0 
0.99213 -0.0197823 0 
0.980366 -0.72279 0 
0.946585 -1.40956 0 
0.891546 -2.06468 0 
0.816485 -2.67343 0 
0.723087 -3.22215 0 
0.61345 -3.6985 0 
0.490037 -4.09178 0 
0.355618 -4.39318 0 
0.213214 -4.59592 0 
0.0195979 4.95403 0 
0.0583601 4.84277 0 
0.0958115 4.62276 0 
0.131111 4.29892 0 
0.163465 3.87855 0 
0.192148 3.37107 0 
0.216516 2.78788 0 
0.236021 2.14208 0 
0.250226 1.44818 0 
0.258811 0.721751 0 
0.261584 -0.020884 0 
0.258482 -0.76305 0 
0.249575 -1.48808 0 
0.235063 -2.17969 0 
0.215273 -2.82235 0 
0.190647 -3.40163 0 
0.161741 -3.90451 0 
0.129201 -4.31971 0 
0.0937603 -4.63789 0 
0.0562146 -4.85192 0 
-0.0363674 4.9074 0 
-0.108262 4.79719 0 
-0.177728 4.57925 0 
-0.243204 4.25846 0 
-0.303219 3.84204 0 
-0.356425 3.33934 0 
-0.401626 2.76164 0 
-0.437808 2.12192 0 
-0.464157 1.43455 0 
-0.480083 0.714958 0 
-0.485227 -0.0206873 0 
-0.479474 -0.755868 0 
-0.462952 -1.47407 0 
-0.436034 -2.15918 0 
-0.399324 -2.79579 0 
-0.353646 -3.36961 0 
-0.300025 -3.86776 0 
-0.239667 -4.27905 0 
-0.173928 -4.59424 0 
-0.104284 -4.80626 0 
